 vasp.6.2.0 18Jan21 (build Jul 31 2023 14:19:35) complex                        
  
 executed on             LinuxIFC date 2025.09.17  14:01:23
 running on    8 total cores
 distrk:  each k-point on    8 cores,    1 groups
 distr:  one band on NCORE=   4 cores,    2 groups


--------------------------------------------------------------------------------------------------------


 INCAR:
   SYSTEM = MoS2_SinglePoint_vdW_Coulomb
   PREC = Accurate
   ENCUT = 500
   GGA = PE
   ALGO = Normal
   NELM = 100
   NELMIN = 5
   EDIFF = 1E-6
   ISMEAR = 0
   SIGMA = 0.05
   IBRION = -1
   NSW = 0
   IVDW = 12
   LREAL = .FALSE.
   LCHARG = .TRUE.
   LWAVE = .TRUE.
   NWRITE = 1
   NCORE = 4

 POTCAR:    PAW_PBE Mo_sv 02Feb2006               
 POTCAR:    PAW_PBE S 06Sep2000                   
 POTCAR:    PAW_PBE Mo_sv 02Feb2006               
  local pseudopotential read in
  partial core-charges read in
  partial kinetic energy density read in
  atomic valenz-charges read in
  non local Contribution for L=           0  read in
    real space projection operators read in
  non local Contribution for L=           0  read in
    real space projection operators read in
  non local Contribution for L=           1  read in
    real space projection operators read in
  non local Contribution for L=           1  read in
    real space projection operators read in
  non local Contribution for L=           2  read in
    real space projection operators read in
  non local Contribution for L=           2  read in
    real space projection operators read in
    PAW grid and wavefunctions read in
 
   number of l-projection  operators is LMAX  =           6
   number of lm-projection operators is LMMAX =          18
 
 POTCAR:    PAW_PBE S 06Sep2000                   
  local pseudopotential read in
  partial core-charges read in
  partial kinetic energy density read in
  atomic valenz-charges read in
  non local Contribution for L=           0  read in
    real space projection operators read in
  non local Contribution for L=           0  read in
    real space projection operators read in
  non local Contribution for L=           1  read in
    real space projection operators read in
  non local Contribution for L=           1  read in
    real space projection operators read in
    PAW grid and wavefunctions read in
 
   number of l-projection  operators is LMAX  =           4
   number of lm-projection operators is LMMAX =           8
 
  PAW_PBE Mo_sv 02Feb2006               :
 energy of atom  1       EATOM=-1862.2866
 kinetic energy error for atom=    0.0074 (will be added to EATOM!!)
  PAW_PBE S 06Sep2000                   :
 energy of atom  2       EATOM= -276.8230
 kinetic energy error for atom=    0.0020 (will be added to EATOM!!)
 
 
 POSCAR: Mo S
  positions in direct lattice
  No initial velocities read in
 exchange correlation table for  LEXCH =        8
   RHO(1)=    0.500       N(1)  =     2000
   RHO(2)=  100.500       N(2)  =     4000

 VTST: version 4.0, (05/15/20)

 CHAIN: initializing optimizer
 
 OPT: Using VASP Dynamics algorithm
 CHAIN: Read ICHAIN            0
 
 POSCAR: Mo S
  positions in direct lattice
  No initial velocities read in
 


--------------------------------------------------------------------------------------------------------


 ion  position               nearest neighbor table
   1  0.667  0.333  0.250-   3 2.34   6 2.42   4 2.42   4 2.42   6 2.42   4 2.42   6 2.42
   2  0.333  0.667  0.750-   5 2.42   5 2.42   5 2.42
   3  0.667  0.333  0.425-   4 2.00   4 2.00   4 2.00   1 2.34
   4  0.333  0.667  0.367-   3 2.00   3 2.00   3 2.00   1 2.42   1 2.42   1 2.42
   5  0.667  0.333  0.867-   2 2.42   2 2.42   2 2.42
   6  0.333  0.667  0.133-   1 2.42   1 2.42   1 2.42
 
  LATTYP: Found a hexagonal cell.
 ALAT       =     3.1922378540
 C/A-ratio  =     4.1908825730
  
  Lattice vectors:
  
 A1 = (   1.5961189270,  -2.7645590765,   0.0000000000)
 A2 = (   1.5961189270,   2.7645590765,   0.0000000000)
 A3 = (   0.0000000000,   0.0000000000,  13.3782939911)


Analysis of symmetry for initial positions (statically):
=====================================================================
 Subroutine PRICEL returns:
 Original cell was already a primitive cell.
 

 Routine SETGRP: Setting up the symmetry group for a 
 hexagonal supercell.


 Subroutine GETGRP returns: Found  6 space group operations
 (whereof  6 operations were pure point group operations)
 out of a pool of 24 trial point group operations.


The static configuration has the point symmetry C_3v.


Analysis of symmetry for dynamics (positions and initial velocities):
=====================================================================
 Subroutine PRICEL returns:
 Original cell was already a primitive cell.
 

 Routine SETGRP: Setting up the symmetry group for a 
 hexagonal supercell.


 Subroutine GETGRP returns: Found  6 space group operations
 (whereof  6 operations were pure point group operations)
 out of a pool of 24 trial point group operations.


The dynamic configuration has the point symmetry C_3v.


 Subroutine INISYM returns: Found  6 space group operations
 (whereof  6 operations are pure point group operations),
 and found     1 'primitive' translations


----------------------------------------------------------------------------------------

                                     Primitive cell                                     

  volume of cell :     118.0652

  direct lattice vectors                    reciprocal lattice vectors
     1.596118927 -2.764559076  0.000000000     0.313259865 -0.180860668  0.000000000
     1.596118927  2.764559076  0.000000000     0.313259865  0.180860668  0.000000000
     0.000000000  0.000000000 13.378293991     0.000000000  0.000000000  0.074747946

  length of vectors
     3.192237854  3.192237854 13.378293991     0.361721335  0.361721335  0.074747946

  position of ions in fractional coordinates (direct lattice)
     0.666666667  0.333333333  0.250000000
     0.333333333  0.666666667  0.750000000
     0.666666667  0.333333333  0.425123760
     0.333333333  0.666666667  0.366918000
     0.666666667  0.333333333  0.866918000
     0.333333333  0.666666667  0.133082000

  ion indices of the primitive-cell ions
   primitive index   ion index
                 1           1
                 2           2
                 3           3
                 4           4
                 5           5
                 6           6

----------------------------------------------------------------------------------------

 
 
 KPOINTS: K-Spacing Value to Generate K-Mesh: 0.15

Automatic generation of k-mesh.
 Grid dimensions read from file:
 generate k-points for:    2    2    1

 Generating k-lattice:

  Cartesian coordinates                     Fractional coordinates (reciprocal lattice)
     0.156629933 -0.090430334  0.000000000     0.500000000  0.000000000  0.000000000
     0.156629933  0.090430334  0.000000000     0.000000000  0.500000000  0.000000000
     0.000000000  0.000000000  0.074747946     0.000000000  0.000000000  1.000000000

  Length of vectors
     0.180860668  0.180860668  0.074747946

  Shift w.r.t. Gamma in fractional coordinates (k-lattice)
     0.500000000  0.500000000  0.000000000

 
 Subroutine IBZKPT returns following result:
 ===========================================
 
 Found      2 irreducible k-points:
 
 Following reciprocal coordinates:
            Coordinates               Weight
  0.250000  0.250000  0.000000      6.000000
 -0.250000  0.250000  0.000000      6.000000
 
 Following cartesian coordinates:
            Coordinates               Weight
  0.156630  0.000000  0.000000      6.000000
  0.000000  0.090430  0.000000      6.000000
 


--------------------------------------------------------------------------------------------------------




 Dimension of arrays:
   k-points           NKPTS =      2   k-points in BZ     NKDIM =      2   number of bands    NBANDS=     32
   number of dos      NEDOS =    301   number of ions     NIONS =      6
   non local maximal  LDIM  =      6   non local SUM 2l+1 LMDIM =     18
   total plane-waves  NPLWV =  56448
   max r-space proj   IRMAX =      1   max aug-charges    IRDMAX=  21106
   dimension x,y,z NGX =    24 NGY =   24 NGZ =   98
   dimension x,y,z NGXF=    48 NGYF=   48 NGZF=  196
   support grid    NGXF=    48 NGYF=   48 NGZF=  196
   ions per type =               2   4
   NGX,Y,Z   is equivalent  to a cutoff of  12.50, 12.50, 12.18 a.u.
   NGXF,Y,Z  is equivalent  to a cutoff of  25.00, 25.00, 24.36 a.u.

 SYSTEM =  MoS2_SinglePoint_vdW_Coulomb           
 POSCAR =  Mo S                                    

 Startparameter for this run:
   NWRITE =      1    write-flag & timer
   PREC   = accura    normal or accurate (medium, high low for compatibility)
   ISTART =      0    job   : 0-new  1-cont  2-samecut
   ICHARG =      2    charge: 1-file 2-atom 10-const
   ISPIN  =      1    spin polarized calculation?
   LNONCOLLINEAR =      F non collinear calculations
   LSORBIT =      F    spin-orbit coupling
   INIWAV =      1    electr: 0-lowe 1-rand  2-diag
   LASPH  =      F    aspherical Exc in radial PAW
   METAGGA=      F    non-selfconsistent MetaGGA calc.

 Electronic Relaxation 1
   ENCUT  =  500.0 eV  36.75 Ry    6.06 a.u.   5.82  5.82 24.39*2*pi/ulx,y,z
   ENINI  =  500.0     initial cutoff
   ENAUG  =  446.0 eV  augmentation charge cutoff
   NELM   =    100;   NELMIN=  5; NELMDL= -5     # of ELM steps 
   EDIFF  = 0.1E-05   stopping-criterion for ELM
   LREAL  =      F    real-space projection
   NLSPLINE    = F    spline interpolate recip. space projectors
   LCOMPAT=      F    compatible to vasp.4.4
   GGA_COMPAT  = T    GGA compatible to vasp.4.4-vasp.4.6
   LMAXPAW     = -100 max onsite density
   LMAXMIX     =    2 max onsite mixed and CHGCAR
   VOSKOWN=      0    Vosko Wilk Nusair interpolation
   ROPT   =    0.00000   0.00000
 Ionic relaxation
   EDIFFG = 0.1E-04   stopping-criterion for IOM
   NSW    =      0    number of steps for IOM
   NBLOCK =      1;   KBLOCK =      1    inner block; outer block 
   IBRION =     -1    ionic relax: 0-MD 1-quasi-New 2-CG
   NFREE  =      0    steps in history (QN), initial steepest desc. (CG)
   ISIF   =      2    stress and relaxation
   IWAVPR =     10    prediction:  0-non 1-charg 2-wave 3-comb
   ISYM   =      2    0-nonsym 1-usesym 2-fastsym
   LCORR  =      T    Harris-Foulkes like correction to forces

   POTIM  = 0.5000    time-step for ionic-motion
   TEIN   =    0.0    initial temperature
   TEBEG  =    0.0;   TEEND  =   0.0 temperature during run
   SMASS  =  -3.00    Nose mass-parameter (am)
   estimated Nose-frequenzy (Omega)   =  0.10E-29 period in steps = 0.13E+47 mass=  -0.233E-27a.u.
   SCALEE = 1.0000    scale energy and forces
   NPACO  =    256;   APACO  = 16.0  distance and # of slots for P.C.
   PSTRESS=    0.0 pullay stress

  Mass of Ions in am
   POMASS =  95.94 32.07
  Ionic Valenz
   ZVAL   =  14.00  6.00
  Atomic Wigner-Seitz radii
   RWIGS  =  -1.00 -1.00
  virtual crystal weights 
   VCA    =   1.00  1.00
   NELECT =      52.0000    total number of electrons
   NUPDOWN=      -1.0000    fix difference up-down

 DOS related values:
   EMIN   =  10.00;   EMAX   =-10.00  energy-range for DOS
   EFERMI =   0.00
   ISMEAR =     0;   SIGMA  =   0.05  broadening in eV -4-tet -1-fermi 0-gaus

 Electronic relaxation 2 (details)
   IALGO  =     38    algorithm
   LDIAG  =      T    sub-space diagonalisation (order eigenvalues)
   LSUBROT=      F    optimize rotation matrix (better conditioning)
   TURBO    =      0    0=normal 1=particle mesh
   IRESTART =      0    0=no restart 2=restart with 2 vectors
   NREBOOT  =      0    no. of reboots
   NMIN     =      0    reboot dimension
   EREF     =   0.00    reference energy to select bands
   IMIX   =      4    mixing-type and parameters
     AMIX     =   0.40;   BMIX     =  1.00
     AMIX_MAG =   1.60;   BMIX_MAG =  1.00
     AMIN     =   0.10
     WC   =   100.;   INIMIX=   1;  MIXPRE=   1;  MAXMIX= -45

 Intra band minimization:
   WEIMIN = 0.0000     energy-eigenvalue tresh-hold
   EBREAK =  0.78E-08  absolut break condition
   DEPER  =   0.30     relativ break condition  

   TIME   =   0.40     timestep for ELM

  volume/ion in A,a.u.               =      19.68       132.79
  Fermi-wavevector in a.u.,A,eV,Ry     =   1.245571  2.353789 21.108736  1.551448
  Thomas-Fermi vector in A             =   2.379788
 
 Write flags
   LWAVE        =      T    write WAVECAR
   LDOWNSAMPLE  =      F    k-point downsampling of WAVECAR
   LCHARG       =      T    write CHGCAR
   LVTOT        =      F    write LOCPOT, total local potential
   LVHAR        =      F    write LOCPOT, Hartree potential only
   LELF         =      F    write electronic localiz. function (ELF)
   LORBIT       =      0    0 simple, 1 ext, 2 COOP (PROOUT), +10 PAW based schemes


 Dipole corrections
   LMONO  =      F    monopole corrections only (constant potential shift)
   LDIPOL =      F    correct potential (dipole corrections)
   IDIPOL =      0    1-x, 2-y, 3-z, 4-all directions 
   EPSILON=  1.0000000 bulk dielectric constant

 Exchange correlation treatment:
   GGA     =    PE    GGA type
   LEXCH   =     8    internal setting for exchange type
   VOSKOWN=      0    Vosko Wilk Nusair interpolation
   LHFCALC =     F    Hartree Fock is set to
   LHFONE  =     F    Hartree Fock one center treatment
   AEXX    =    0.0000 exact exchange contribution

 Linear response parameters
   LEPSILON=     F    determine dielectric tensor
   LRPA    =     F    only Hartree local field effects (RPA)
   LNABLA  =     F    use nabla operator in PAW spheres
   LVEL    =     F    velocity operator in full k-point grid
   LINTERFAST=   F  fast interpolation
   KINTER  =     0    interpolate to denser k-point grid
   CSHIFT  =0.1000    complex shift for real part using Kramers Kronig
   OMEGAMAX=  -1.0    maximum frequency
   DEG_THRESHOLD= 0.2000000E-02 threshold for treating states as degnerate
   RTIME   =   -0.100 relaxation time in fs
  (WPLASMAI=    0.000 imaginary part of plasma frequency in eV, 0.658/RTIME)
   DFIELD  = 0.0000000 0.0000000 0.0000000 field for delta impulse in time
 
 Orbital magnetization related:
   ORBITALMAG=     F  switch on orbital magnetization
   LCHIMAG   =     F  perturbation theory with respect to B field
   DQ        =  0.001000  dq finite difference perturbation B field
   LLRAUG    =     F  two centre corrections for induced B field



--------------------------------------------------------------------------------------------------------


 Static calculation
 charge density and potential will be updated during run
 non-spin polarized calculation
 Variant of blocked Davidson
 Davidson routine will perform the subspace rotation
 perform sub-space diagonalisation
    after iterative eigenvector-optimisation
 modified Broyden-mixing scheme, WC =      100.0
 initial mixing is a Kerker type mixing with AMIX =  0.4000 and BMIX =      1.0000
 Hartree-type preconditioning will be used
 using additional bands            6
 reciprocal scheme for non local part
 use partial core corrections
 calculate Harris-corrections to forces 
   (improved forces if not selfconsistent)
 use gradient corrections 
 use of overlap-Matrix (Vanderbilt PP)
 Gauss-broadening in eV      SIGMA  =   0.05


--------------------------------------------------------------------------------------------------------


  energy-cutoff  :      500.00
  volume of cell :      118.07
      direct lattice vectors                 reciprocal lattice vectors
     1.596118927 -2.764559076  0.000000000     0.313259865 -0.180860668  0.000000000
     1.596118927  2.764559076  0.000000000     0.313259865  0.180860668  0.000000000
     0.000000000  0.000000000 13.378293991     0.000000000  0.000000000  0.074747946

  length of vectors
     3.192237854  3.192237854 13.378293991     0.361721335  0.361721335  0.074747946


 
 k-points in units of 2pi/SCALE and weight: K-Spacing Value to Generate K-Mesh: 0.15
   0.15662993  0.00000000  0.00000000       0.500
   0.00000000  0.09043033  0.00000000       0.500
 
 k-points in reciprocal lattice and weights: K-Spacing Value to Generate K-Mesh: 0.15
   0.25000000  0.25000000  0.00000000       0.500
  -0.25000000  0.25000000  0.00000000       0.500
 
 position of ions in fractional coordinates (direct lattice) 
   0.66666667  0.33333333  0.25000000
   0.33333333  0.66666667  0.75000000
   0.66666667  0.33333333  0.42512376
   0.33333333  0.66666667  0.36691800
   0.66666667  0.33333333  0.86691800
   0.33333333  0.66666667  0.13308200
 
 position of ions in cartesian coordinates  (Angst):
   1.59611893 -0.92151969  3.34457350
   1.59611893  0.92151969 10.03372049
   1.59611893 -0.92151969  5.68743064
   1.59611893  0.92151969  4.90873687
   1.59611893 -0.92151969 11.59788387
   1.59611893  0.92151969  1.78041012
 


--------------------------------------------------------------------------------------------------------


 k-point   1 :   0.2500 0.2500 0.0000  plane waves:    3020
 k-point   2 :  -0.2500 0.2500 0.0000  plane waves:    2992

 maximum and minimum number of plane-waves per node :       768      742

 maximum number of plane-waves:      3020
 maximum index in each direction: 
   IXMAX=    6   IYMAX=    5   IZMAX=   24
   IXMIN=   -6   IYMIN=   -6   IZMIN=  -24


 parallel 3D FFT for wavefunctions:
    minimum data exchange during FFTs selected (reduces bandwidth)
 parallel 3D FFT for charge:
    minimum data exchange during FFTs selected (reduces bandwidth)


 total amount of memory used by VASP MPI-rank0    37007. kBytes
=======================================================================

   base      :      30000. kBytes
   nonl-proj :        502. kBytes
   fftplans  :       2328. kBytes
   grid      :       3750. kBytes
   one-center:         31. kBytes
   wavefun   :        396. kBytes
 
     INWAV:  cpu time    0.0000: real time    0.0000
 Broyden mixing: mesh for mixing (old mesh)
   NGX = 11   NGY = 11   NGZ = 49
  (NGX  = 48   NGY  = 48   NGZ  =196)
  gives a total of   5929 points

 initial charge density was supplied:
 charge density of overlapping atoms calculated
 number of electron      52.0000000 magnetization 
 keeping initial charge density in first step


--------------------------------------------------------------------------------------------------------


 Maximum index for augmentation-charges         2591 (set IRDMAX)


--------------------------------------------------------------------------------------------------------


 First call to EWALD:  gamma=   0.361
 Maximum number of real-space cells 4x 4x 1
 Maximum number of reciprocal cells 2x 2x 7

    FEWALD:  cpu time    0.0020: real time    0.0020


--------------------------------------- Iteration      1(   1)  ---------------------------------------


    POTLOK:  cpu time    0.0566: real time    0.0576
    SETDIJ:  cpu time    0.0055: real time    0.0055
     EDDAV:  cpu time    0.1321: real time    0.1322
       DOS:  cpu time    0.0007: real time    0.0007
    --------------------------------------------
      LOOP:  cpu time    0.1949: real time    0.1961

 eigenvalue-minimisations  :   144
 total energy-change (2. order) : 0.4474599E+03  (-0.2915856E+04)
 number of electron      52.0000000 magnetization 
 augmentation part       52.0000000 magnetization 

 Free energy of the ion-electron system (eV)
  ---------------------------------------------------
  alpha Z        PSCENC =       160.27286088
  Ewald energy   TEWEN  =     -2573.75720896
  -Hartree energ DENC   =     -2156.58261925
  -exchange      EXHF   =         0.00000000
  -V(xc)+E(xc)   XCENC  =       184.48858716
  PAW double counting   =      3865.57804258    -3815.84821480
  entropy T*S    EENTRO =        -0.00135474
  eigenvalues    EBANDS =       -48.53278786
  atomic energy  EATOM  =      4831.84262874
  Solvation  Ediel_sol  =         0.00000000
  ---------------------------------------------------
  free energy    TOTEN  =       447.45993374 eV

  energy without entropy =      447.46128849  energy(sigma->0) =      447.46061112


--------------------------------------------------------------------------------------------------------




--------------------------------------- Iteration      1(   2)  ---------------------------------------


     EDDAV:  cpu time    0.1385: real time    0.1423
       DOS:  cpu time    0.0003: real time    0.0003
    --------------------------------------------
      LOOP:  cpu time    0.1389: real time    0.1426

 eigenvalue-minimisations  :   160
 total energy-change (2. order) :-0.4594098E+03  (-0.4492238E+03)
 number of electron      52.0000000 magnetization 
 augmentation part       52.0000000 magnetization 

 Free energy of the ion-electron system (eV)
  ---------------------------------------------------
  alpha Z        PSCENC =       160.27286088
  Ewald energy   TEWEN  =     -2573.75720896
  -Hartree energ DENC   =     -2156.58261925
  -exchange      EXHF   =         0.00000000
  -V(xc)+E(xc)   XCENC  =       184.48858716
  PAW double counting   =      3865.57804258    -3815.84821480
  entropy T*S    EENTRO =        -0.00028203
  eigenvalues    EBANDS =      -507.94365269
  atomic energy  EATOM  =      4831.84262874
  Solvation  Ediel_sol  =         0.00000000
  ---------------------------------------------------
  free energy    TOTEN  =       -11.94985837 eV

  energy without entropy =      -11.94957634  energy(sigma->0) =      -11.94971735


--------------------------------------------------------------------------------------------------------




--------------------------------------- Iteration      1(   3)  ---------------------------------------


     EDDAV:  cpu time    0.1439: real time    0.1476
       DOS:  cpu time    0.0002: real time    0.0002
    --------------------------------------------
      LOOP:  cpu time    0.1441: real time    0.1477

 eigenvalue-minimisations  :   168
 total energy-change (2. order) :-0.2407541E+02  (-0.2338025E+02)
 number of electron      52.0000000 magnetization 
 augmentation part       52.0000000 magnetization 

 Free energy of the ion-electron system (eV)
  ---------------------------------------------------
  alpha Z        PSCENC =       160.27286088
  Ewald energy   TEWEN  =     -2573.75720896
  -Hartree energ DENC   =     -2156.58261925
  -exchange      EXHF   =         0.00000000
  -V(xc)+E(xc)   XCENC  =       184.48858716
  PAW double counting   =      3865.57804258    -3815.84821480
  entropy T*S    EENTRO =        -0.00000002
  eigenvalues    EBANDS =      -532.01934259
  atomic energy  EATOM  =      4831.84262874
  Solvation  Ediel_sol  =         0.00000000
  ---------------------------------------------------
  free energy    TOTEN  =       -36.02526626 eV

  energy without entropy =      -36.02526624  energy(sigma->0) =      -36.02526625


--------------------------------------------------------------------------------------------------------




--------------------------------------- Iteration      1(   4)  ---------------------------------------


     EDDAV:  cpu time    0.1488: real time    0.1529
       DOS:  cpu time    0.0002: real time    0.0002
    --------------------------------------------
      LOOP:  cpu time    0.1490: real time    0.1531

 eigenvalue-minimisations  :   176
 total energy-change (2. order) :-0.6322961E+00  (-0.6300346E+00)
 number of electron      52.0000000 magnetization 
 augmentation part       52.0000000 magnetization 

 Free energy of the ion-electron system (eV)
  ---------------------------------------------------
  alpha Z        PSCENC =       160.27286088
  Ewald energy   TEWEN  =     -2573.75720896
  -Hartree energ DENC   =     -2156.58261925
  -exchange      EXHF   =         0.00000000
  -V(xc)+E(xc)   XCENC  =       184.48858716
  PAW double counting   =      3865.57804258    -3815.84821480
  entropy T*S    EENTRO =        -0.00000000
  eigenvalues    EBANDS =      -532.65163868
  atomic energy  EATOM  =      4831.84262874
  Solvation  Ediel_sol  =         0.00000000
  ---------------------------------------------------
  free energy    TOTEN  =       -36.65756234 eV

  energy without entropy =      -36.65756234  energy(sigma->0) =      -36.65756234


--------------------------------------------------------------------------------------------------------




--------------------------------------- Iteration      1(   5)  ---------------------------------------


     EDDAV:  cpu time    0.1380: real time    0.1421
       DOS:  cpu time    0.0003: real time    0.0003
    CHARGE:  cpu time    0.0225: real time    0.0225
    MIXING:  cpu time    0.0014: real time    0.0014
    --------------------------------------------
      LOOP:  cpu time    0.1621: real time    0.1663

 eigenvalue-minimisations  :   160
 total energy-change (2. order) :-0.1117575E-01  (-0.1116686E-01)
 number of electron      51.9999993 magnetization 
 augmentation part        1.0072318 magnetization 

 Broyden mixing:
  rms(total) = 0.45762E+01    rms(broyden)= 0.45762E+01
  rms(prec ) = 0.46477E+01
  weight for this iteration     100.00

 Free energy of the ion-electron system (eV)
  ---------------------------------------------------
  alpha Z        PSCENC =       160.27286088
  Ewald energy   TEWEN  =     -2573.75720896
  -Hartree energ DENC   =     -2156.58261925
  -exchange      EXHF   =         0.00000000
  -V(xc)+E(xc)   XCENC  =       184.48858716
  PAW double counting   =      3865.57804258    -3815.84821480
  entropy T*S    EENTRO =        -0.00000000
  eigenvalues    EBANDS =      -532.66281443
  atomic energy  EATOM  =      4831.84262874
  Solvation  Ediel_sol  =         0.00000000
  ---------------------------------------------------
  free energy    TOTEN  =       -36.66873808 eV

  energy without entropy =      -36.66873808  energy(sigma->0) =      -36.66873808


--------------------------------------------------------------------------------------------------------




--------------------------------------- Iteration      1(   6)  ---------------------------------------


    POTLOK:  cpu time    0.0552: real time    0.0588
    SETDIJ:  cpu time    0.0053: real time    0.0053
     EDDAV:  cpu time    0.1287: real time    0.1287
       DOS:  cpu time    0.0002: real time    0.0002
    CHARGE:  cpu time    0.0223: real time    0.0223
    MIXING:  cpu time    0.0014: real time    0.0014
    --------------------------------------------
      LOOP:  cpu time    0.2132: real time    0.2168

 eigenvalue-minimisations  :   144
 total energy-change (2. order) : 0.1439010E+01  (-0.1520544E+01)
 number of electron      51.9999992 magnetization 
 augmentation part        2.0078789 magnetization 

 Broyden mixing:
  rms(total) = 0.19816E+01    rms(broyden)= 0.19816E+01
  rms(prec ) = 0.23166E+01
  weight for this iteration     100.00

 eigenvalues of (default mixing * dielectric matrix)
  average eigenvalue GAMMA=   1.4541
  1.4541

 Free energy of the ion-electron system (eV)
  ---------------------------------------------------
  alpha Z        PSCENC =       160.27286088
  Ewald energy   TEWEN  =     -2573.75720896
  -Hartree energ DENC   =     -2123.02826445
  -exchange      EXHF   =         0.00000000
  -V(xc)+E(xc)   XCENC  =       183.19283032
  PAW double counting   =      5150.89703987    -5106.18033284
  entropy T*S    EENTRO =        -0.00000000
  eigenvalues    EBANDS =      -558.46928166
  atomic energy  EATOM  =      4831.84262874
  Solvation  Ediel_sol  =         0.00000000
  ---------------------------------------------------
  free energy    TOTEN  =       -35.22972811 eV

  energy without entropy =      -35.22972811  energy(sigma->0) =      -35.22972811


--------------------------------------------------------------------------------------------------------




--------------------------------------- Iteration      1(   7)  ---------------------------------------


    POTLOK:  cpu time    0.0552: real time    0.0592
    SETDIJ:  cpu time    0.0053: real time    0.0053
     EDDAV:  cpu time    0.1432: real time    0.1432
       DOS:  cpu time    0.0004: real time    0.0004
    CHARGE:  cpu time    0.0223: real time    0.0223
    MIXING:  cpu time    0.0014: real time    0.0014
    --------------------------------------------
      LOOP:  cpu time    0.2278: real time    0.2317

 eigenvalue-minimisations  :   168
 total energy-change (2. order) :-0.1478477E+02  (-0.1073127E+02)
 number of electron      51.9999993 magnetization 
 augmentation part        1.0674781 magnetization 

 Broyden mixing:
  rms(total) = 0.37988E+01    rms(broyden)= 0.37988E+01
  rms(prec ) = 0.58353E+01
  weight for this iteration     100.00

 eigenvalues of (default mixing * dielectric matrix)
  average eigenvalue GAMMA=   1.0518
  1.8751  0.2285

 Free energy of the ion-electron system (eV)
  ---------------------------------------------------
  alpha Z        PSCENC =       160.27286088
  Ewald energy   TEWEN  =     -2573.75720896
  -Hartree energ DENC   =     -2148.72507602
  -exchange      EXHF   =         0.00000000
  -V(xc)+E(xc)   XCENC  =       184.10590716
  PAW double counting   =      6336.57555165    -6289.84461845
  entropy T*S    EENTRO =        -0.02706762
  eigenvalues    EBANDS =      -550.45747959
  atomic energy  EATOM  =      4831.84262874
  Solvation  Ediel_sol  =         0.00000000
  ---------------------------------------------------
  free energy    TOTEN  =       -50.01450221 eV

  energy without entropy =      -49.98743459  energy(sigma->0) =      -50.00096840


--------------------------------------------------------------------------------------------------------




--------------------------------------- Iteration      1(   8)  ---------------------------------------


    POTLOK:  cpu time    0.0576: real time    0.0617
    SETDIJ:  cpu time    0.0056: real time    0.0056
     EDDAV:  cpu time    0.1442: real time    0.1442
       DOS:  cpu time    0.0002: real time    0.0002
    CHARGE:  cpu time    0.0223: real time    0.0223
    MIXING:  cpu time    0.0015: real time    0.0015
    --------------------------------------------
      LOOP:  cpu time    0.2315: real time    0.2355

 eigenvalue-minimisations  :   168
 total energy-change (2. order) : 0.1414258E+02  (-0.5041945E+01)
 number of electron      51.9999994 magnetization 
 augmentation part        0.9166465 magnetization 

 Broyden mixing:
  rms(total) = 0.16176E+01    rms(broyden)= 0.16176E+01
  rms(prec ) = 0.17958E+01
  weight for this iteration     100.00

 eigenvalues of (default mixing * dielectric matrix)
  average eigenvalue GAMMA=   0.9762
  2.1695  0.4393  0.3198

 Free energy of the ion-electron system (eV)
  ---------------------------------------------------
  alpha Z        PSCENC =       160.27286088
  Ewald energy   TEWEN  =     -2573.75720896
  -Hartree energ DENC   =     -2166.06083840
  -exchange      EXHF   =         0.00000000
  -V(xc)+E(xc)   XCENC  =       184.23673833
  PAW double counting   =      7220.66009128    -7174.12889342
  entropy T*S    EENTRO =        -0.00000000
  eigenvalues    EBANDS =      -518.93730024
  atomic energy  EATOM  =      4831.84262874
  Solvation  Ediel_sol  =         0.00000000
  ---------------------------------------------------
  free energy    TOTEN  =       -35.87192180 eV

  energy without entropy =      -35.87192180  energy(sigma->0) =      -35.87192180


--------------------------------------------------------------------------------------------------------




--------------------------------------- Iteration      1(   9)  ---------------------------------------


    POTLOK:  cpu time    0.0553: real time    0.0580
    SETDIJ:  cpu time    0.0054: real time    0.0054
     EDDAV:  cpu time    0.1372: real time    0.1375
       DOS:  cpu time    0.0003: real time    0.0003
    CHARGE:  cpu time    0.0222: real time    0.0223
    MIXING:  cpu time    0.0015: real time    0.0015
    --------------------------------------------
      LOOP:  cpu time    0.2219: real time    0.2248

 eigenvalue-minimisations  :   160
 total energy-change (2. order) : 0.1109249E+01  (-0.4940942E+00)
 number of electron      51.9999992 magnetization 
 augmentation part        1.5608941 magnetization 

 Broyden mixing:
  rms(total) = 0.46582E+00    rms(broyden)= 0.46581E+00
  rms(prec ) = 0.79192E+00
  weight for this iteration     100.00

 eigenvalues of (default mixing * dielectric matrix)
  average eigenvalue GAMMA=   0.9054
  2.0712  0.7582  0.5598  0.2324

 Free energy of the ion-electron system (eV)
  ---------------------------------------------------
  alpha Z        PSCENC =       160.27286088
  Ewald energy   TEWEN  =     -2573.75720896
  -Hartree energ DENC   =     -2136.72990050
  -exchange      EXHF   =         0.00000000
  -V(xc)+E(xc)   XCENC  =       183.51929968
  PAW double counting   =      7939.92446110    -7895.94444391
  entropy T*S    EENTRO =        -0.00002351
  eigenvalues    EBANDS =      -543.89034646
  atomic energy  EATOM  =      4831.84262874
  Solvation  Ediel_sol  =         0.00000000
  ---------------------------------------------------
  free energy    TOTEN  =       -34.76267295 eV

  energy without entropy =      -34.76264944  energy(sigma->0) =      -34.76266120


--------------------------------------------------------------------------------------------------------




--------------------------------------- Iteration      1(  10)  ---------------------------------------


    POTLOK:  cpu time    0.0552: real time    0.0580
    SETDIJ:  cpu time    0.0054: real time    0.0054
     EDDAV:  cpu time    0.1425: real time    0.1426
       DOS:  cpu time    0.0001: real time    0.0001
    CHARGE:  cpu time    0.0223: real time    0.0223
    MIXING:  cpu time    0.0015: real time    0.0015
    --------------------------------------------
      LOOP:  cpu time    0.2270: real time    0.2299

 eigenvalue-minimisations  :   168
 total energy-change (2. order) : 0.3503686E+00  (-0.2387271E+00)
 number of electron      51.9999993 magnetization 
 augmentation part        1.4146326 magnetization 

 Broyden mixing:
  rms(total) = 0.66671E+00    rms(broyden)= 0.66671E+00
  rms(prec ) = 0.73077E+00
  weight for this iteration     100.00

 eigenvalues of (default mixing * dielectric matrix)
  average eigenvalue GAMMA=   0.8717
  2.1050  1.1917  0.5605  0.2506  0.2506

 Free energy of the ion-electron system (eV)
  ---------------------------------------------------
  alpha Z        PSCENC =       160.27286088
  Ewald energy   TEWEN  =     -2573.75720896
  -Hartree energ DENC   =     -2135.47613746
  -exchange      EXHF   =         0.00000000
  -V(xc)+E(xc)   XCENC  =       183.44163805
  PAW double counting   =      7907.21988469    -7863.28638393
  entropy T*S    EENTRO =        -0.00000000
  eigenvalues    EBANDS =      -544.66958636
  atomic energy  EATOM  =      4831.84262874
  Solvation  Ediel_sol  =         0.00000000
  ---------------------------------------------------
  free energy    TOTEN  =       -34.41230435 eV

  energy without entropy =      -34.41230435  energy(sigma->0) =      -34.41230435


--------------------------------------------------------------------------------------------------------




--------------------------------------- Iteration      1(  11)  ---------------------------------------


    POTLOK:  cpu time    0.0573: real time    0.0611
    SETDIJ:  cpu time    0.0053: real time    0.0054
     EDDAV:  cpu time    0.1432: real time    0.1432
       DOS:  cpu time    0.0001: real time    0.0001
    CHARGE:  cpu time    0.0219: real time    0.0219
    MIXING:  cpu time    0.0015: real time    0.0015
    --------------------------------------------
      LOOP:  cpu time    0.2294: real time    0.2332

 eigenvalue-minimisations  :   168
 total energy-change (2. order) : 0.7491268E-01  (-0.3481560E-01)
 number of electron      51.9999993 magnetization 
 augmentation part        1.5242730 magnetization 

 Broyden mixing:
  rms(total) = 0.46391E+00    rms(broyden)= 0.46391E+00
  rms(prec ) = 0.50524E+00
  weight for this iteration     100.00

 eigenvalues of (default mixing * dielectric matrix)
  average eigenvalue GAMMA=   0.9559
  2.1422  1.1137  1.1137  0.7130  0.2402  0.4123

 Free energy of the ion-electron system (eV)
  ---------------------------------------------------
  alpha Z        PSCENC =       160.27286088
  Ewald energy   TEWEN  =     -2573.75720896
  -Hartree energ DENC   =     -2130.47590566
  -exchange      EXHF   =         0.00000000
  -V(xc)+E(xc)   XCENC  =       183.30950635
  PAW double counting   =      8048.91204926    -8005.40779770
  entropy T*S    EENTRO =        -0.00000000
  eigenvalues    EBANDS =      -549.03352458
  atomic energy  EATOM  =      4831.84262874
  Solvation  Ediel_sol  =         0.00000000
  ---------------------------------------------------
  free energy    TOTEN  =       -34.33739167 eV

  energy without entropy =      -34.33739167  energy(sigma->0) =      -34.33739167


--------------------------------------------------------------------------------------------------------




--------------------------------------- Iteration      1(  12)  ---------------------------------------


    POTLOK:  cpu time    0.0551: real time    0.0583
    SETDIJ:  cpu time    0.0054: real time    0.0054
     EDDAV:  cpu time    0.1330: real time    0.1330
       DOS:  cpu time    0.0002: real time    0.0002
    CHARGE:  cpu time    0.0223: real time    0.0223
    MIXING:  cpu time    0.0016: real time    0.0016
    --------------------------------------------
      LOOP:  cpu time    0.2175: real time    0.2207

 eigenvalue-minimisations  :   152
 total energy-change (2. order) : 0.1940023E-01  (-0.1533627E-01)
 number of electron      51.9999993 magnetization 
 augmentation part        1.5071158 magnetization 

 Broyden mixing:
  rms(total) = 0.18598E+00    rms(broyden)= 0.18598E+00
  rms(prec ) = 0.25525E+00
  weight for this iteration     100.00

 eigenvalues of (default mixing * dielectric matrix)
  average eigenvalue GAMMA=   1.0685
  2.1554  2.1554  0.9258  0.9258  0.6987  0.2412  0.3770

 Free energy of the ion-electron system (eV)
  ---------------------------------------------------
  alpha Z        PSCENC =       160.27286088
  Ewald energy   TEWEN  =     -2573.75720896
  -Hartree energ DENC   =     -2132.79417380
  -exchange      EXHF   =         0.00000000
  -V(xc)+E(xc)   XCENC  =       183.35024272
  PAW double counting   =      8175.80455625    -8132.23426678
  entropy T*S    EENTRO =        -0.00000000
  eigenvalues    EBANDS =      -546.80263048
  atomic energy  EATOM  =      4831.84262874
  Solvation  Ediel_sol  =         0.00000000
  ---------------------------------------------------
  free energy    TOTEN  =       -34.31799144 eV

  energy without entropy =      -34.31799144  energy(sigma->0) =      -34.31799144


--------------------------------------------------------------------------------------------------------




--------------------------------------- Iteration      1(  13)  ---------------------------------------


    POTLOK:  cpu time    0.0550: real time    0.0583
    SETDIJ:  cpu time    0.0054: real time    0.0054
     EDDAV:  cpu time    0.1479: real time    0.1479
       DOS:  cpu time    0.0001: real time    0.0001
    CHARGE:  cpu time    0.0220: real time    0.0220
    MIXING:  cpu time    0.0016: real time    0.0016
    --------------------------------------------
      LOOP:  cpu time    0.2320: real time    0.2354

 eigenvalue-minimisations  :   176
 total energy-change (2. order) : 0.3742011E-01  (-0.8530743E-02)
 number of electron      51.9999992 magnetization 
 augmentation part        1.5541640 magnetization 

 Broyden mixing:
  rms(total) = 0.10156E+00    rms(broyden)= 0.10156E+00
  rms(prec ) = 0.16210E+00
  weight for this iteration     100.00

 eigenvalues of (default mixing * dielectric matrix)
  average eigenvalue GAMMA=   1.1001
  2.3929  2.3929  0.9917  0.8427  0.8427  0.7170  0.2412  0.3796

 Free energy of the ion-electron system (eV)
  ---------------------------------------------------
  alpha Z        PSCENC =       160.27286088
  Ewald energy   TEWEN  =     -2573.75720896
  -Hartree energ DENC   =     -2131.88424229
  -exchange      EXHF   =         0.00000000
  -V(xc)+E(xc)   XCENC  =       183.32626221
  PAW double counting   =      8082.13857418    -8038.61388545
  entropy T*S    EENTRO =        -0.00000000
  eigenvalues    EBANDS =      -547.60556064
  atomic energy  EATOM  =      4831.84262874
  Solvation  Ediel_sol  =         0.00000000
  ---------------------------------------------------
  free energy    TOTEN  =       -34.28057133 eV

  energy without entropy =      -34.28057133  energy(sigma->0) =      -34.28057133


--------------------------------------------------------------------------------------------------------




--------------------------------------- Iteration      1(  14)  ---------------------------------------


    POTLOK:  cpu time    0.0552: real time    0.0585
    SETDIJ:  cpu time    0.0054: real time    0.0054
     EDDAV:  cpu time    0.1431: real time    0.1431
       DOS:  cpu time    0.0002: real time    0.0002
    CHARGE:  cpu time    0.0223: real time    0.0223
    MIXING:  cpu time    0.0017: real time    0.0017
    --------------------------------------------
      LOOP:  cpu time    0.2278: real time    0.2311

 eigenvalue-minimisations  :   168
 total energy-change (2. order) : 0.1508160E-01  (-0.1573536E-02)
 number of electron      51.9999992 magnetization 
 augmentation part        1.5659341 magnetization 

 Broyden mixing:
  rms(total) = 0.42639E-01    rms(broyden)= 0.42639E-01
  rms(prec ) = 0.11485E+00
  weight for this iteration     100.00

 eigenvalues of (default mixing * dielectric matrix)
  average eigenvalue GAMMA=   1.0904
  2.1979  2.1979  1.4190  0.9889  0.9889  0.2412  0.3795  0.7700  0.6302

 Free energy of the ion-electron system (eV)
  ---------------------------------------------------
  alpha Z        PSCENC =       160.27286088
  Ewald energy   TEWEN  =     -2573.75720896
  -Hartree energ DENC   =     -2132.23224253
  -exchange      EXHF   =         0.00000000
  -V(xc)+E(xc)   XCENC  =       183.32912349
  PAW double counting   =      8129.42925689    -8085.94171592
  entropy T*S    EENTRO =        -0.00000000
  eigenvalues    EBANDS =      -547.20819232
  atomic energy  EATOM  =      4831.84262874
  Solvation  Ediel_sol  =         0.00000000
  ---------------------------------------------------
  free energy    TOTEN  =       -34.26548973 eV

  energy without entropy =      -34.26548973  energy(sigma->0) =      -34.26548973


--------------------------------------------------------------------------------------------------------




--------------------------------------- Iteration      1(  15)  ---------------------------------------


    POTLOK:  cpu time    0.0551: real time    0.0585
    SETDIJ:  cpu time    0.0054: real time    0.0054
     EDDAV:  cpu time    0.1452: real time    0.1452
       DOS:  cpu time    0.0001: real time    0.0001
    CHARGE:  cpu time    0.0223: real time    0.0223
    MIXING:  cpu time    0.0017: real time    0.0017
    --------------------------------------------
      LOOP:  cpu time    0.2299: real time    0.2333

 eigenvalue-minimisations  :   168
 total energy-change (2. order) : 0.1235201E-01  (-0.6389968E-03)
 number of electron      51.9999992 magnetization 
 augmentation part        1.5637178 magnetization 

 Broyden mixing:
  rms(total) = 0.43203E-01    rms(broyden)= 0.43203E-01
  rms(prec ) = 0.10208E+00
  weight for this iteration     100.00

 eigenvalues of (default mixing * dielectric matrix)
  average eigenvalue GAMMA=   1.2833
  2.7214  2.7214  2.3662  1.0659  1.0659  0.2412  0.3795  0.7984  0.7984  0.6746

 Free energy of the ion-electron system (eV)
  ---------------------------------------------------
  alpha Z        PSCENC =       160.27286088
  Ewald energy   TEWEN  =     -2573.75720896
  -Hartree energ DENC   =     -2133.09410067
  -exchange      EXHF   =         0.00000000
  -V(xc)+E(xc)   XCENC  =       183.35182001
  PAW double counting   =      8122.24254161    -8078.72059170
  entropy T*S    EENTRO =        -0.00000000
  eigenvalues    EBANDS =      -546.39108763
  atomic energy  EATOM  =      4831.84262874
  Solvation  Ediel_sol  =         0.00000000
  ---------------------------------------------------
  free energy    TOTEN  =       -34.25313773 eV

  energy without entropy =      -34.25313773  energy(sigma->0) =      -34.25313773


--------------------------------------------------------------------------------------------------------




--------------------------------------- Iteration      1(  16)  ---------------------------------------


    POTLOK:  cpu time    0.0551: real time    0.0580
    SETDIJ:  cpu time    0.0054: real time    0.0054
     EDDAV:  cpu time    0.1426: real time    0.1426
       DOS:  cpu time    0.0003: real time    0.0003
    CHARGE:  cpu time    0.0224: real time    0.0224
    MIXING:  cpu time    0.0018: real time    0.0018
    --------------------------------------------
      LOOP:  cpu time    0.2276: real time    0.2305

 eigenvalue-minimisations  :   168
 total energy-change (2. order) : 0.2710062E-01  (-0.4708637E-02)
 number of electron      51.9999992 magnetization 
 augmentation part        1.5668432 magnetization 

 Broyden mixing:
  rms(total) = 0.32122E-01    rms(broyden)= 0.32122E-01
  rms(prec ) = 0.61647E-01
  weight for this iteration     100.00

 eigenvalues of (default mixing * dielectric matrix)
  average eigenvalue GAMMA=   1.1888
  2.6253  2.6253  2.0680  1.1699  1.1699  0.2412  0.8060  0.8060  0.6875  0.3795
  0.4977

 Free energy of the ion-electron system (eV)
  ---------------------------------------------------
  alpha Z        PSCENC =       160.27286088
  Ewald energy   TEWEN  =     -2573.75720896
  -Hartree energ DENC   =     -2135.10629603
  -exchange      EXHF   =         0.00000000
  -V(xc)+E(xc)   XCENC  =       183.39784668
  PAW double counting   =      8133.34982799    -8089.78946731
  entropy T*S    EENTRO =        -0.00000026
  eigenvalues    EBANDS =      -544.43622882
  atomic energy  EATOM  =      4831.84262874
  Solvation  Ediel_sol  =         0.00000000
  ---------------------------------------------------
  free energy    TOTEN  =       -34.22603710 eV

  energy without entropy =      -34.22603685  energy(sigma->0) =      -34.22603698


--------------------------------------------------------------------------------------------------------




--------------------------------------- Iteration      1(  17)  ---------------------------------------


    POTLOK:  cpu time    0.0549: real time    0.0585
    SETDIJ:  cpu time    0.0054: real time    0.0054
     EDDAV:  cpu time    0.1262: real time    0.1262
       DOS:  cpu time    0.0003: real time    0.0003
    CHARGE:  cpu time    0.0222: real time    0.0222
    MIXING:  cpu time    0.0018: real time    0.0018
    --------------------------------------------
      LOOP:  cpu time    0.2109: real time    0.2145

 eigenvalue-minimisations  :   144
 total energy-change (2. order) :-0.6400573E-03  (-0.2955645E-03)
 number of electron      51.9999992 magnetization 
 augmentation part        1.5662914 magnetization 

 Broyden mixing:
  rms(total) = 0.26711E-01    rms(broyden)= 0.26711E-01
  rms(prec ) = 0.57899E-01
  weight for this iteration     100.00

 eigenvalues of (default mixing * dielectric matrix)
  average eigenvalue GAMMA=   1.0997
  2.6167  2.6167  2.0530  1.1960  1.1960  0.8038  0.8038  0.6848  0.2412  0.3794
  0.4423  0.1627

 Free energy of the ion-electron system (eV)
  ---------------------------------------------------
  alpha Z        PSCENC =       160.27286088
  Ewald energy   TEWEN  =     -2573.75720896
  -Hartree energ DENC   =     -2134.98633722
  -exchange      EXHF   =         0.00000000
  -V(xc)+E(xc)   XCENC  =       183.39311629
  PAW double counting   =      8132.92793688    -8089.37278259
  entropy T*S    EENTRO =        -0.00000020
  eigenvalues    EBANDS =      -544.54689099
  atomic energy  EATOM  =      4831.84262874
  Solvation  Ediel_sol  =         0.00000000
  ---------------------------------------------------
  free energy    TOTEN  =       -34.22667716 eV

  energy without entropy =      -34.22667697  energy(sigma->0) =      -34.22667706


--------------------------------------------------------------------------------------------------------




--------------------------------------- Iteration      1(  18)  ---------------------------------------


    POTLOK:  cpu time    0.0551: real time    0.0584
    SETDIJ:  cpu time    0.0053: real time    0.0053
     EDDAV:  cpu time    0.1328: real time    0.1331
       DOS:  cpu time    0.0003: real time    0.0003
    CHARGE:  cpu time    0.0222: real time    0.0222
    MIXING:  cpu time    0.0019: real time    0.0019
    --------------------------------------------
      LOOP:  cpu time    0.2176: real time    0.2212

 eigenvalue-minimisations  :   152
 total energy-change (2. order) : 0.7732748E-03  (-0.1845459E-04)
 number of electron      51.9999992 magnetization 
 augmentation part        1.5666744 magnetization 

 Broyden mixing:
  rms(total) = 0.25957E-01    rms(broyden)= 0.25957E-01
  rms(prec ) = 0.56027E-01
  weight for this iteration     100.00

 eigenvalues of (default mixing * dielectric matrix)
  average eigenvalue GAMMA=   1.3788
  3.7684  3.7684  2.0804  1.4822  1.4822  0.2412  0.9299  0.9299  0.3795  0.7969
  0.7969  0.6723  0.5961

 Free energy of the ion-electron system (eV)
  ---------------------------------------------------
  alpha Z        PSCENC =       160.27286088
  Ewald energy   TEWEN  =     -2573.75720896
  -Hartree energ DENC   =     -2135.03543494
  -exchange      EXHF   =         0.00000000
  -V(xc)+E(xc)   XCENC  =       183.39353729
  PAW double counting   =      8131.90530862    -8088.35026647
  entropy T*S    EENTRO =        -0.00000034
  eigenvalues    EBANDS =      -544.49732870
  atomic energy  EATOM  =      4831.84262874
  Solvation  Ediel_sol  =         0.00000000
  ---------------------------------------------------
  free energy    TOTEN  =       -34.22590389 eV

  energy without entropy =      -34.22590355  energy(sigma->0) =      -34.22590372


--------------------------------------------------------------------------------------------------------




--------------------------------------- Iteration      1(  19)  ---------------------------------------


    POTLOK:  cpu time    0.0551: real time    0.0585
    SETDIJ:  cpu time    0.0054: real time    0.0054
     EDDAV:  cpu time    0.1471: real time    0.1471
       DOS:  cpu time    0.0004: real time    0.0004
    CHARGE:  cpu time    0.0225: real time    0.0225
    MIXING:  cpu time    0.0039: real time    0.0039
    --------------------------------------------
      LOOP:  cpu time    0.2343: real time    0.2377

 eigenvalue-minimisations  :   168
 total energy-change (2. order) : 0.1005598E-01  (-0.3267389E-02)
 number of electron      51.9999992 magnetization 
 augmentation part        1.5711040 magnetization 

 Broyden mixing:
  rms(total) = 0.88531E-02    rms(broyden)= 0.88524E-02
  rms(prec ) = 0.11006E-01
  weight for this iteration     100.00

 eigenvalues of (default mixing * dielectric matrix)
  average eigenvalue GAMMA=   1.3153
  3.7791  3.7791  2.1202  1.4781  1.4781  0.9266  0.9266  0.2412  0.3795  0.7629
  0.7629  0.6387  0.6387  0.5023

 Free energy of the ion-electron system (eV)
  ---------------------------------------------------
  alpha Z        PSCENC =       160.27286088
  Ewald energy   TEWEN  =     -2573.75720896
  -Hartree energ DENC   =     -2136.76266493
  -exchange      EXHF   =         0.00000000
  -V(xc)+E(xc)   XCENC  =       183.43035136
  PAW double counting   =      8129.76686916    -8086.17419832
  entropy T*S    EENTRO =        -0.00482926
  eigenvalues    EBANDS =      -542.82965657
  atomic energy  EATOM  =      4831.84262874
  Solvation  Ediel_sol  =         0.00000000
  ---------------------------------------------------
  free energy    TOTEN  =       -34.21584791 eV

  energy without entropy =      -34.21101865  energy(sigma->0) =      -34.21343328


--------------------------------------------------------------------------------------------------------




--------------------------------------- Iteration      1(  20)  ---------------------------------------


    POTLOK:  cpu time    0.0566: real time    0.0588
    SETDIJ:  cpu time    0.0054: real time    0.0054
     EDDAV:  cpu time    0.1321: real time    0.1321
       DOS:  cpu time    0.0003: real time    0.0003
    CHARGE:  cpu time    0.0222: real time    0.0222
    MIXING:  cpu time    0.0020: real time    0.0020
    --------------------------------------------
      LOOP:  cpu time    0.2187: real time    0.2208

 eigenvalue-minimisations  :   152
 total energy-change (2. order) :-0.5294722E-03  (-0.2094922E-03)
 number of electron      51.9999992 magnetization 
 augmentation part        1.5681064 magnetization 

 Broyden mixing:
  rms(total) = 0.15735E-01    rms(broyden)= 0.15735E-01
  rms(prec ) = 0.23649E-01
  weight for this iteration     100.00

 eigenvalues of (default mixing * dielectric matrix)
  average eigenvalue GAMMA=   1.4297
  5.9225  3.1154  2.1626  1.7871  1.7871  1.0464  1.0464  0.2412  0.7883  0.7883
  0.6536  0.6469  0.6469  0.3795  0.4327

 Free energy of the ion-electron system (eV)
  ---------------------------------------------------
  alpha Z        PSCENC =       160.27286088
  Ewald energy   TEWEN  =     -2573.75720896
  -Hartree energ DENC   =     -2136.39430947
  -exchange      EXHF   =         0.00000000
  -V(xc)+E(xc)   XCENC  =       183.42265583
  PAW double counting   =      8129.50260444    -8085.91658423
  entropy T*S    EENTRO =        -0.00135198
  eigenvalues    EBANDS =      -543.18767262
  atomic energy  EATOM  =      4831.84262874
  Solvation  Ediel_sol  =         0.00000000
  ---------------------------------------------------
  free energy    TOTEN  =       -34.21637738 eV

  energy without entropy =      -34.21502540  energy(sigma->0) =      -34.21570139


--------------------------------------------------------------------------------------------------------




--------------------------------------- Iteration      1(  21)  ---------------------------------------


    POTLOK:  cpu time    0.0552: real time    0.0582
    SETDIJ:  cpu time    0.0054: real time    0.0054
     EDDAV:  cpu time    0.1424: real time    0.1424
       DOS:  cpu time    0.0003: real time    0.0003
    CHARGE:  cpu time    0.0223: real time    0.0223
    MIXING:  cpu time    0.0021: real time    0.0021
    --------------------------------------------
      LOOP:  cpu time    0.2277: real time    0.2307

 eigenvalue-minimisations  :   168
 total energy-change (2. order) :-0.5636343E-03  (-0.4063535E-03)
 number of electron      51.9999992 magnetization 
 augmentation part        1.5764876 magnetization 

 Broyden mixing:
  rms(total) = 0.48265E-01    rms(broyden)= 0.48265E-01
  rms(prec ) = 0.65536E-01
  weight for this iteration     100.00

 eigenvalues of (default mixing * dielectric matrix)
  average eigenvalue GAMMA=   1.3899
  5.8174  3.3681  2.3482  1.7792  1.7792  1.0556  1.0556  0.2412  0.7366  0.7366
  0.3795  0.7591  0.7591  0.6489  0.5916  0.1831

 Free energy of the ion-electron system (eV)
  ---------------------------------------------------
  alpha Z        PSCENC =       160.27286088
  Ewald energy   TEWEN  =     -2573.75720896
  -Hartree energ DENC   =     -2136.86341656
  -exchange      EXHF   =         0.00000000
  -V(xc)+E(xc)   XCENC  =       183.43095329
  PAW double counting   =      8130.77033179    -8087.17727315
  entropy T*S    EENTRO =        -0.01021241
  eigenvalues    EBANDS =      -542.72560462
  atomic energy  EATOM  =      4831.84262874
  Solvation  Ediel_sol  =         0.00000000
  ---------------------------------------------------
  free energy    TOTEN  =       -34.21694101 eV

  energy without entropy =      -34.20672860  energy(sigma->0) =      -34.21183481


--------------------------------------------------------------------------------------------------------




--------------------------------------- Iteration      1(  22)  ---------------------------------------


    POTLOK:  cpu time    0.0551: real time    0.0583
    SETDIJ:  cpu time    0.0054: real time    0.0054
     EDDAV:  cpu time    0.1211: real time    0.1212
       DOS:  cpu time    0.0004: real time    0.0003
    CHARGE:  cpu time    0.0222: real time    0.0222
    MIXING:  cpu time    0.0021: real time    0.0021
    --------------------------------------------
      LOOP:  cpu time    0.2063: real time    0.2095

 eigenvalue-minimisations  :   136
 total energy-change (2. order) : 0.1108942E-03  (-0.2619745E-04)
 number of electron      51.9999992 magnetization 
 augmentation part        1.5758934 magnetization 

 Broyden mixing:
  rms(total) = 0.44119E-01    rms(broyden)= 0.44119E-01
  rms(prec ) = 0.60263E-01
  weight for this iteration     100.00

 eigenvalues of (default mixing * dielectric matrix)
  average eigenvalue GAMMA=   1.3558
  4.2343  4.2343  2.3240  1.7444  1.7444  1.2022  1.2022  0.9512  0.8335  0.8335
  0.7889  0.7889  0.2412  0.3795  0.6868  0.6091  0.2501

 Free energy of the ion-electron system (eV)
  ---------------------------------------------------
  alpha Z        PSCENC =       160.27286088
  Ewald energy   TEWEN  =     -2573.75720896
  -Hartree energ DENC   =     -2136.81407704
  -exchange      EXHF   =         0.00000000
  -V(xc)+E(xc)   XCENC  =       183.43020083
  PAW double counting   =      8130.88620583    -8087.29294684
  entropy T*S    EENTRO =        -0.00976359
  eigenvalues    EBANDS =      -542.77472997
  atomic energy  EATOM  =      4831.84262874
  Solvation  Ediel_sol  =         0.00000000
  ---------------------------------------------------
  free energy    TOTEN  =       -34.21683012 eV

  energy without entropy =      -34.20706653  energy(sigma->0) =      -34.21194832


--------------------------------------------------------------------------------------------------------




--------------------------------------- Iteration      1(  23)  ---------------------------------------


    POTLOK:  cpu time    0.0549: real time    0.0574
    SETDIJ:  cpu time    0.0054: real time    0.0054
     EDDAV:  cpu time    0.1373: real time    0.1373
       DOS:  cpu time    0.0003: real time    0.0003
    CHARGE:  cpu time    0.0222: real time    0.0222
    MIXING:  cpu time    0.0022: real time    0.0022
    --------------------------------------------
      LOOP:  cpu time    0.2224: real time    0.2250

 eigenvalue-minimisations  :   160
 total energy-change (2. order) : 0.8203055E-03  (-0.2786448E-03)
 number of electron      51.9999992 magnetization 
 augmentation part        1.5690917 magnetization 

 Broyden mixing:
  rms(total) = 0.10510E-01    rms(broyden)= 0.10508E-01
  rms(prec ) = 0.14937E-01
  weight for this iteration     100.00

 eigenvalues of (default mixing * dielectric matrix)
  average eigenvalue GAMMA=   1.3659
  4.4511  4.4511  2.3896  2.0740  2.0740  1.0754  1.0754  0.7770  0.7770  0.8641
  0.8641  0.2412  0.3795  0.7774  0.7774  0.6557  0.6297  0.2522

 Free energy of the ion-electron system (eV)
  ---------------------------------------------------
  alpha Z        PSCENC =       160.27286088
  Ewald energy   TEWEN  =     -2573.75720896
  -Hartree energ DENC   =     -2136.34018534
  -exchange      EXHF   =         0.00000000
  -V(xc)+E(xc)   XCENC  =       183.42047311
  PAW double counting   =      8130.70215699    -8087.11716697
  entropy T*S    EENTRO =        -0.00225008
  eigenvalues    EBANDS =      -543.23731818
  atomic energy  EATOM  =      4831.84262874
  Solvation  Ediel_sol  =         0.00000000
  ---------------------------------------------------
  free energy    TOTEN  =       -34.21600981 eV

  energy without entropy =      -34.21375973  energy(sigma->0) =      -34.21488477


--------------------------------------------------------------------------------------------------------




--------------------------------------- Iteration      1(  24)  ---------------------------------------


    POTLOK:  cpu time    0.0550: real time    0.0580
    SETDIJ:  cpu time    0.0054: real time    0.0054
     EDDAV:  cpu time    0.1396: real time    0.1397
       DOS:  cpu time    0.0003: real time    0.0003
    CHARGE:  cpu time    0.0222: real time    0.0222
    MIXING:  cpu time    0.0024: real time    0.0024
    --------------------------------------------
      LOOP:  cpu time    0.2249: real time    0.2280

 eigenvalue-minimisations  :   160
 total energy-change (2. order) : 0.1447135E-03  (-0.2746103E-04)
 number of electron      51.9999992 magnetization 
 augmentation part        1.5701628 magnetization 

 Broyden mixing:
  rms(total) = 0.40386E-02    rms(broyden)= 0.40386E-02
  rms(prec ) = 0.42367E-02
  weight for this iteration     100.00

 eigenvalues of (default mixing * dielectric matrix)
  average eigenvalue GAMMA=   1.3558
  4.4354  4.4354  2.2974  2.1064  2.1064  0.9665  0.9665  1.0959  1.0959  0.2412
  0.8617  0.8617  0.3795  0.8858  0.7384  0.7384  0.6749  0.6207  0.2525

 Free energy of the ion-electron system (eV)
  ---------------------------------------------------
  alpha Z        PSCENC =       160.27286088
  Ewald energy   TEWEN  =     -2573.75720896
  -Hartree energ DENC   =     -2136.44028192
  -exchange      EXHF   =         0.00000000
  -V(xc)+E(xc)   XCENC  =       183.42255448
  PAW double counting   =      8130.91336580    -8087.32605922
  entropy T*S    EENTRO =        -0.00371200
  eigenvalues    EBANDS =      -543.14001289
  atomic energy  EATOM  =      4831.84262874
  Solvation  Ediel_sol  =         0.00000000
  ---------------------------------------------------
  free energy    TOTEN  =       -34.21586510 eV

  energy without entropy =      -34.21215310  energy(sigma->0) =      -34.21400910


--------------------------------------------------------------------------------------------------------




--------------------------------------- Iteration      1(  25)  ---------------------------------------


    POTLOK:  cpu time    0.0552: real time    0.0581
    SETDIJ:  cpu time    0.0054: real time    0.0054
     EDDAV:  cpu time    0.1217: real time    0.1217
       DOS:  cpu time    0.0003: real time    0.0003
    CHARGE:  cpu time    0.0222: real time    0.0222
    MIXING:  cpu time    0.0024: real time    0.0024
    --------------------------------------------
      LOOP:  cpu time    0.2072: real time    0.2102

 eigenvalue-minimisations  :   136
 total energy-change (2. order) :-0.4109886E-05  (-0.1539929E-05)
 number of electron      51.9999992 magnetization 
 augmentation part        1.5701064 magnetization 

 Broyden mixing:
  rms(total) = 0.32017E-02    rms(broyden)= 0.32017E-02
  rms(prec ) = 0.37273E-02
  weight for this iteration     100.00

 eigenvalues of (default mixing * dielectric matrix)
  average eigenvalue GAMMA=   1.3548
  4.3499  4.3499  2.2321  2.1571  2.1571  1.3763  1.3763  1.0757  1.0757  0.2412
  0.8647  0.8647  0.3795  0.7766  0.7766  0.7529  0.7529  0.6416  0.6416  0.2524

 Free energy of the ion-electron system (eV)
  ---------------------------------------------------
  alpha Z        PSCENC =       160.27286088
  Ewald energy   TEWEN  =     -2573.75720896
  -Hartree energ DENC   =     -2136.42471436
  -exchange      EXHF   =         0.00000000
  -V(xc)+E(xc)   XCENC  =       183.42225070
  PAW double counting   =      8131.00827525    -8087.42075301
  entropy T*S    EENTRO =        -0.00358867
  eigenvalues    EBANDS =      -543.15561976
  atomic energy  EATOM  =      4831.84262874
  Solvation  Ediel_sol  =         0.00000000
  ---------------------------------------------------
  free energy    TOTEN  =       -34.21586921 eV

  energy without entropy =      -34.21228054  energy(sigma->0) =      -34.21407487


--------------------------------------------------------------------------------------------------------




--------------------------------------- Iteration      1(  26)  ---------------------------------------


    POTLOK:  cpu time    0.0551: real time    0.0582
    SETDIJ:  cpu time    0.0054: real time    0.0054
     EDDAV:  cpu time    0.1273: real time    0.1273
       DOS:  cpu time    0.0004: real time    0.0004
    CHARGE:  cpu time    0.0222: real time    0.0222
    MIXING:  cpu time    0.0025: real time    0.0025
    --------------------------------------------
      LOOP:  cpu time    0.2129: real time    0.2160

 eigenvalue-minimisations  :   144
 total energy-change (2. order) : 0.1884914E-05  (-0.1873109E-05)
 number of electron      51.9999992 magnetization 
 augmentation part        1.5704324 magnetization 

 Broyden mixing:
  rms(total) = 0.18176E-02    rms(broyden)= 0.18176E-02
  rms(prec ) = 0.23152E-02
  weight for this iteration     100.00

 eigenvalues of (default mixing * dielectric matrix)
  average eigenvalue GAMMA=   1.3830
  3.9050  3.9050  3.3040  2.3073  2.0961  2.0961  0.9692  0.9692  1.1289  1.1289
  1.1664  0.8412  0.8412  0.2412  0.3795  0.7693  0.7693  0.6639  0.6639  0.6445
  0.2525

 Free energy of the ion-electron system (eV)
  ---------------------------------------------------
  alpha Z        PSCENC =       160.27286088
  Ewald energy   TEWEN  =     -2573.75720896
  -Hartree energ DENC   =     -2136.47490858
  -exchange      EXHF   =         0.00000000
  -V(xc)+E(xc)   XCENC  =       183.42318985
  PAW double counting   =      8131.24343933    -8087.65440506
  entropy T*S    EENTRO =        -0.00411046
  eigenvalues    EBANDS =      -543.10735306
  atomic energy  EATOM  =      4831.84262874
  Solvation  Ediel_sol  =         0.00000000
  ---------------------------------------------------
  free energy    TOTEN  =       -34.21586732 eV

  energy without entropy =      -34.21175687  energy(sigma->0) =      -34.21381210


--------------------------------------------------------------------------------------------------------




--------------------------------------- Iteration      1(  27)  ---------------------------------------


    POTLOK:  cpu time    0.0551: real time    0.0581
    SETDIJ:  cpu time    0.0055: real time    0.0055
     EDDAV:  cpu time    0.1177: real time    0.1180
       DOS:  cpu time    0.0003: real time    0.0003
    CHARGE:  cpu time    0.0222: real time    0.0222
    MIXING:  cpu time    0.0026: real time    0.0026
    --------------------------------------------
      LOOP:  cpu time    0.2033: real time    0.2065

 eigenvalue-minimisations  :   128
 total energy-change (2. order) :-0.3213648E-05  (-0.2920339E-06)
 number of electron      51.9999992 magnetization 
 augmentation part        1.5706414 magnetization 

 Broyden mixing:
  rms(total) = 0.36387E-02    rms(broyden)= 0.36387E-02
  rms(prec ) = 0.42753E-02
  weight for this iteration     100.00

 eigenvalues of (default mixing * dielectric matrix)
  average eigenvalue GAMMA=   1.3671
  3.7884  3.7688  3.7688  2.1659  2.1659  1.9980  1.2609  1.2609  1.0081  1.0081
  1.0882  0.8356  0.8356  0.2412  0.3795  0.7625  0.7625  0.7205  0.7205  0.6423
  0.6423  0.2525

 Free energy of the ion-electron system (eV)
  ---------------------------------------------------
  alpha Z        PSCENC =       160.27286088
  Ewald energy   TEWEN  =     -2573.75720896
  -Hartree energ DENC   =     -2136.47073270
  -exchange      EXHF   =         0.00000000
  -V(xc)+E(xc)   XCENC  =       183.42285954
  PAW double counting   =      8131.61640933    -8088.02793371
  entropy T*S    EENTRO =        -0.00423014
  eigenvalues    EBANDS =      -543.11052351
  atomic energy  EATOM  =      4831.84262874
  Solvation  Ediel_sol  =         0.00000000
  ---------------------------------------------------
  free energy    TOTEN  =       -34.21587054 eV

  energy without entropy =      -34.21164040  energy(sigma->0) =      -34.21375547


--------------------------------------------------------------------------------------------------------




--------------------------------------- Iteration      1(  28)  ---------------------------------------


    POTLOK:  cpu time    0.0550: real time    0.0583
    SETDIJ:  cpu time    0.0054: real time    0.0054
     EDDAV:  cpu time    0.1082: real time    0.1082
       DOS:  cpu time    0.0003: real time    0.0003
    CHARGE:  cpu time    0.0222: real time    0.0222
    MIXING:  cpu time    0.0027: real time    0.0027
    --------------------------------------------
      LOOP:  cpu time    0.1937: real time    0.1970

 eigenvalue-minimisations  :   112
 total energy-change (2. order) :-0.8373688E-05  (-0.3185479E-06)
 number of electron      51.9999992 magnetization 
 augmentation part        1.5708430 magnetization 

 Broyden mixing:
  rms(total) = 0.48472E-02    rms(broyden)= 0.48472E-02
  rms(prec ) = 0.61318E-02
  weight for this iteration     100.00

 eigenvalues of (default mixing * dielectric matrix)
  average eigenvalue GAMMA=   1.3606
  4.0265  4.0265  3.3773  2.2536  2.2536  2.0582  1.0947  1.0947  1.1931  1.1931
  0.2412  0.3795  0.8505  0.8505  0.8439  0.8439  0.9088  0.7962  0.7962  0.6470
  0.6558  0.6558  0.2525

 Free energy of the ion-electron system (eV)
  ---------------------------------------------------
  alpha Z        PSCENC =       160.27286088
  Ewald energy   TEWEN  =     -2573.75720896
  -Hartree energ DENC   =     -2136.48129036
  -exchange      EXHF   =         0.00000000
  -V(xc)+E(xc)   XCENC  =       183.42306967
  PAW double counting   =      8131.68117050    -8088.09240521
  entropy T*S    EENTRO =        -0.00446799
  eigenvalues    EBANDS =      -543.10023617
  atomic energy  EATOM  =      4831.84262874
  Solvation  Ediel_sol  =         0.00000000
  ---------------------------------------------------
  free energy    TOTEN  =       -34.21587891 eV

  energy without entropy =      -34.21141092  energy(sigma->0) =      -34.21364491


--------------------------------------------------------------------------------------------------------




--------------------------------------- Iteration      1(  29)  ---------------------------------------


    POTLOK:  cpu time    0.0573: real time    0.0605
    SETDIJ:  cpu time    0.0054: real time    0.0054
     EDDAV:  cpu time    0.0937: real time    0.0940
       DOS:  cpu time    0.0005: real time    0.0005
    CHARGE:  cpu time    0.0221: real time    0.0221
    MIXING:  cpu time    0.0028: real time    0.0028
    --------------------------------------------
      LOOP:  cpu time    0.1817: real time    0.1852

 eigenvalue-minimisations  :    88
 total energy-change (2. order) : 0.4624791E-05  (-0.9428763E-07)
 number of electron      51.9999992 magnetization 
 augmentation part        1.5707180 magnetization 

 Broyden mixing:
  rms(total) = 0.36755E-02    rms(broyden)= 0.36755E-02
  rms(prec ) = 0.47594E-02
  weight for this iteration     100.00

 eigenvalues of (default mixing * dielectric matrix)
  average eigenvalue GAMMA=   1.3999
  4.3644  4.3644  3.3380  2.2416  2.2416  2.0547  1.4691  1.4691  0.9616  0.9616
  1.1224  1.1224  0.2412  0.8507  0.8507  0.3795  0.8928  0.8928  0.7804  0.7804
  0.6561  0.6552  0.6552  0.2525

 Free energy of the ion-electron system (eV)
  ---------------------------------------------------
  alpha Z        PSCENC =       160.27286088
  Ewald energy   TEWEN  =     -2573.75720896
  -Hartree energ DENC   =     -2136.47314860
  -exchange      EXHF   =         0.00000000
  -V(xc)+E(xc)   XCENC  =       183.42296692
  PAW double counting   =      8131.67722922    -8088.08839200
  entropy T*S    EENTRO =        -0.00435393
  eigenvalues    EBANDS =      -543.10845655
  atomic energy  EATOM  =      4831.84262874
  Solvation  Ediel_sol  =         0.00000000
  ---------------------------------------------------
  free energy    TOTEN  =       -34.21587429 eV

  energy without entropy =      -34.21152036  energy(sigma->0) =      -34.21369732


--------------------------------------------------------------------------------------------------------




--------------------------------------- Iteration      1(  30)  ---------------------------------------


    POTLOK:  cpu time    0.0550: real time    0.0584
    SETDIJ:  cpu time    0.0054: real time    0.0054
     EDDAV:  cpu time    0.1178: real time    0.1178
       DOS:  cpu time    0.0003: real time    0.0003
    CHARGE:  cpu time    0.0221: real time    0.0221
    MIXING:  cpu time    0.0029: real time    0.0029
    --------------------------------------------
      LOOP:  cpu time    0.2036: real time    0.2070

 eigenvalue-minimisations  :   128
 total energy-change (2. order) : 0.6118071E-05  (-0.3034601E-06)
 number of electron      51.9999992 magnetization 
 augmentation part        1.5704893 magnetization 

 Broyden mixing:
  rms(total) = 0.17336E-02    rms(broyden)= 0.17335E-02
  rms(prec ) = 0.23748E-02
  weight for this iteration     100.00

 eigenvalues of (default mixing * dielectric matrix)
  average eigenvalue GAMMA=   1.3987
  4.6532  4.6532  2.9473  2.2444  2.2444  2.2064  1.5611  1.5611  0.9906  0.9906
  1.1699  1.1699  0.2412  0.8512  0.8512  0.9192  0.9192  0.3795  0.7833  0.7833
  0.6557  0.6557  0.6667  0.6180  0.2525

 Free energy of the ion-electron system (eV)
  ---------------------------------------------------
  alpha Z        PSCENC =       160.27286088
  Ewald energy   TEWEN  =     -2573.75720896
  -Hartree energ DENC   =     -2136.45616128
  -exchange      EXHF   =         0.00000000
  -V(xc)+E(xc)   XCENC  =       183.42269842
  PAW double counting   =      8131.61978599    -8088.03096978
  entropy T*S    EENTRO =        -0.00414054
  eigenvalues    EBANDS =      -543.12536164
  atomic energy  EATOM  =      4831.84262874
  Solvation  Ediel_sol  =         0.00000000
  ---------------------------------------------------
  free energy    TOTEN  =       -34.21586817 eV

  energy without entropy =      -34.21172763  energy(sigma->0) =      -34.21379790


--------------------------------------------------------------------------------------------------------




--------------------------------------- Iteration      1(  31)  ---------------------------------------


    POTLOK:  cpu time    0.0550: real time    0.0581
    SETDIJ:  cpu time    0.0055: real time    0.0055
     EDDAV:  cpu time    0.1087: real time    0.1087
       DOS:  cpu time    0.0003: real time    0.0003
    CHARGE:  cpu time    0.0222: real time    0.0222
    MIXING:  cpu time    0.0030: real time    0.0030
    --------------------------------------------
      LOOP:  cpu time    0.1948: real time    0.1979

 eigenvalue-minimisations  :   112
 total energy-change (2. order) : 0.2203317E-05  (-0.1679729E-06)
 number of electron      51.9999992 magnetization 
 augmentation part        1.5703493 magnetization 

 Broyden mixing:
  rms(total) = 0.74029E-03    rms(broyden)= 0.74027E-03
  rms(prec ) = 0.96333E-03
  weight for this iteration     100.00

 eigenvalues of (default mixing * dielectric matrix)
  average eigenvalue GAMMA=   1.3672
  4.5913  4.5913  2.9005  2.1603  2.1064  2.1064  1.6623  1.6623  1.3173  1.3173
  0.9953  0.9953  0.2412  0.8384  0.8384  0.9149  0.9149  0.3795  0.7829  0.7829
  0.6680  0.6288  0.6288  0.6346  0.6346  0.2525

 Free energy of the ion-electron system (eV)
  ---------------------------------------------------
  alpha Z        PSCENC =       160.27286088
  Ewald energy   TEWEN  =     -2573.75720896
  -Hartree energ DENC   =     -2136.44792230
  -exchange      EXHF   =         0.00000000
  -V(xc)+E(xc)   XCENC  =       183.42255956
  PAW double counting   =      8131.57195468    -8087.98320679
  entropy T*S    EENTRO =        -0.00398587
  eigenvalues    EBANDS =      -543.13354592
  atomic energy  EATOM  =      4831.84262874
  Solvation  Ediel_sol  =         0.00000000
  ---------------------------------------------------
  free energy    TOTEN  =       -34.21586597 eV

  energy without entropy =      -34.21188010  energy(sigma->0) =      -34.21387303


--------------------------------------------------------------------------------------------------------




--------------------------------------- Iteration      1(  32)  ---------------------------------------


    POTLOK:  cpu time    0.0549: real time    0.0576
    SETDIJ:  cpu time    0.0054: real time    0.0054
     EDDAV:  cpu time    0.0778: real time    0.0778
       DOS:  cpu time    0.0003: real time    0.0003
    --------------------------------------------
      LOOP:  cpu time    0.1385: real time    0.1412

 eigenvalue-minimisations  :    64
 total energy-change (2. order) : 0.1110047E-06  (-0.2912977E-07)
 number of electron      51.9999992 magnetization 
 augmentation part        1.5703493 magnetization 

 Free energy of the ion-electron system (eV)
  ---------------------------------------------------
  alpha Z        PSCENC =       160.27286088
  Ewald energy   TEWEN  =     -2573.75720896
  -Hartree energ DENC   =     -2136.44765998
  -exchange      EXHF   =         0.00000000
  -V(xc)+E(xc)   XCENC  =       183.42257364
  PAW double counting   =      8131.51768404    -8087.92887960
  entropy T*S    EENTRO =        -0.00396820
  eigenvalues    EBANDS =      -543.13389641
  atomic energy  EATOM  =      4831.84262874
  Solvation  Ediel_sol  =         0.00000000
  ---------------------------------------------------
  free energy    TOTEN  =       -34.21586585 eV

  energy without entropy =      -34.21189765  energy(sigma->0) =      -34.21388175


--------------------------------------------------------------------------------------------------------




 average (electrostatic) potential at core
  the test charge radii are     1.0818  0.9698
  (the norm of the test charge is              1.0000)
       1 -75.1793       2 -75.0961       3 -87.3828       4 -87.8964       5 -85.1916
       6 -85.0684
 
 
 
 E-fermi :   7.1964     XC(G=0): -10.0294     alpha+bet :-12.2268

 Fermi energy:         7.1964057756

 k-point     1 :       0.2500    0.2500    0.0000
  band No.  band energies     occupation 
      1     -54.4731      2.00000
      2     -54.2788      2.00000
      3     -28.8808      2.00000
      4     -28.7380      2.00000
      5     -28.5889      2.00000
      6     -28.4457      2.00000
      7     -28.3911      2.00000
      8     -28.3215      2.00000
      9     -11.8646      2.00000
     10      -8.6631      2.00000
     11      -5.9394      2.00000
     12      -5.7701      2.00000
     13      -4.2368      2.00000
     14      -1.5036      2.00000
     15       0.5513      2.00000
     16       1.6252      2.00000
     17       1.6998      2.00000
     18       2.7055      2.00000
     19       2.9905      2.00000
     20       3.4798      2.00000
     21       3.5655      2.00000
     22       4.1568      2.00000
     23       5.6425      2.00000
     24       5.7763      2.00000
     25       6.0177      2.00000
     26       7.1264      1.95237
     27       7.8205      0.00000
     28       7.9689      0.00000
     29       8.5588      0.00000
     30       8.7905      0.00000
     31       9.1705      0.00000
     32       9.5907      0.00000

 k-point     2 :      -0.2500    0.2500    0.0000
  band No.  band energies     occupation 
      1     -54.4916      2.00000
      2     -54.2954      2.00000
      3     -28.9231      2.00000
      4     -28.6217      2.00000
      5     -28.4743      2.00000
      6     -28.4216      2.00000
      7     -28.3440      2.00000
      8     -28.2219      2.00000
      9     -13.6022      2.00000
     10      -6.7000      2.00000
     11      -6.4839      2.00000
     12      -6.0239      2.00000
     13      -2.5219      2.00000
     14      -1.9740      2.00000
     15       0.9253      2.00000
     16       2.1759      2.00000
     17       2.4404      2.00000
     18       2.7076      2.00000
     19       2.9805      2.00000
     20       3.8631      2.00000
     21       4.0237      2.00000
     22       4.3776      2.00000
     23       5.6003      2.00000
     24       5.7344      2.00000
     25       5.8732      2.00000
     26       6.0186      2.00000
     27       7.2664      0.04761
     28       7.3482      0.00002
     29       7.8952      0.00000
     30       8.5842      0.00000
     31       8.7981      0.00000
     32       9.2710      0.00000


--------------------------------------------------------------------------------------------------------


 soft charge-density along one line, spin component           1
         0         1         2         3         4         5         6         7         8         9
 total charge-density along one line
 
 pseudopotential strength for first ion, spin component:           1
 -5.176  11.281   0.000  -0.028  -0.000  -0.000   0.032   0.000
 11.281   3.280  -0.000   0.023   0.000   0.000  -0.007  -0.000
  0.000  -0.000 -17.972   0.000  -0.000   8.767  -0.000   0.000
 -0.028   0.023   0.000 -18.000  -0.000  -0.000   8.803   0.000
 -0.000   0.000  -0.000  -0.000 -17.972   0.000   0.000   8.767
 -0.000   0.000   8.767  -0.000   0.000   5.844   0.000  -0.000
  0.032  -0.007  -0.000   8.803   0.000   0.000   5.827  -0.000
  0.000  -0.000   0.000   0.000   8.767  -0.000  -0.000   5.844
 -0.000   0.000  -0.000  -0.000   0.007   0.000   0.000  -0.003
  0.000  -0.000  -0.025   0.000  -0.000   0.016  -0.000   0.000
 -0.022   0.014  -0.000  -0.031   0.000   0.000   0.020  -0.000
 -0.000   0.000  -0.000  -0.000  -0.025   0.000   0.000   0.016
 -0.000   0.000   0.007  -0.000  -0.000  -0.003   0.000   0.000
 -0.000   0.000  -0.000  -0.000   0.007   0.000   0.000  -0.003
  0.000  -0.000  -0.026   0.000  -0.000   0.016  -0.000   0.000
 -0.022   0.015  -0.000  -0.032   0.000   0.000   0.021  -0.000
 -0.000   0.000  -0.000  -0.000  -0.026   0.000   0.000   0.016
 -0.000   0.000   0.007  -0.000  -0.000  -0.003   0.000   0.000
 total augmentation occupancy for first ion, spin component:           1
  1.997  -0.030   0.000   0.001   0.000   0.000   0.002   0.000  -0.000   0.000   0.012  -0.000   0.000   0.000   0.000  -0.009
 -0.030   1.152   0.000   0.020  -0.000   0.000  -0.032   0.000  -0.000   0.000  -0.544   0.000  -0.000   0.000   0.000   0.532
  0.000   0.000   2.000   0.000  -0.000  -0.035   0.000  -0.000   0.000  -0.009   0.000  -0.000   0.008   0.000   0.012  -0.000
  0.001   0.020   0.000   2.001  -0.000   0.000  -0.036   0.000  -0.000   0.000  -0.012   0.000  -0.000  -0.000   0.000   0.016
  0.000  -0.000   0.000  -0.000   2.000   0.000   0.000  -0.035   0.008   0.000   0.000  -0.009  -0.000  -0.000  -0.000   0.000
  0.000   0.000  -0.035   0.000   0.000   0.094   0.000   0.000   0.000   0.005   0.000  -0.000   0.176   0.000   0.007  -0.000
  0.002  -0.032   0.000  -0.036   0.000   0.000   0.117   0.000   0.000   0.000  -0.253   0.000  -0.000   0.000   0.000   0.248
  0.000   0.000  -0.000   0.000  -0.035   0.000   0.000   0.094   0.176  -0.000  -0.000   0.005   0.000  -0.193   0.000   0.000
 -0.000  -0.000   0.000  -0.000   0.008   0.000   0.000   0.176   2.919  -0.000  -0.000  -0.486  -0.000  -3.281  -0.000  -0.000
  0.000   0.000  -0.009   0.000   0.000   0.005   0.000  -0.000   0.000   5.451  -0.000   0.000  -0.486   0.000  -6.207   0.000
  0.012  -0.544   0.000  -0.012   0.000   0.000  -0.253  -0.000  -0.000  -0.000   4.945  -0.000   0.000   0.000   0.000  -5.477
 -0.000   0.000  -0.000   0.000  -0.009  -0.000   0.000   0.005  -0.486   0.000  -0.000   5.451   0.000   0.247   0.000   0.000
  0.000  -0.000   0.008  -0.000  -0.000   0.176  -0.000  -0.000  -0.000  -0.486   0.000   0.000   2.919   0.000   0.253  -0.000
  0.000   0.000   0.000  -0.000  -0.000   0.000   0.000  -0.193  -3.281  -0.000   0.000   0.247   0.000   4.474   0.000   0.000
  0.000   0.000   0.012   0.000   0.000   0.007   0.000   0.000   0.000  -6.207   0.000   0.000   0.253   0.000   7.689  -0.000
 -0.009   0.532  -0.000   0.016   0.000  -0.000   0.248   0.000  -0.000   0.000  -5.477   0.000  -0.000   0.000  -0.000   6.773
 -0.000  -0.000  -0.000   0.000   0.012   0.000   0.000   0.007   0.253   0.000   0.000  -6.207   0.000  -0.086   0.000   0.000
 -0.000   0.000  -0.000   0.000   0.000  -0.193   0.000   0.000   0.000   0.247  -0.000   0.000  -3.281   0.000  -0.086   0.000


------------------------ aborting loop because EDIFF is reached ----------------------------------------


    CHARGE:  cpu time    0.0223: real time    0.0223
    FORLOC:  cpu time    0.0046: real time    0.0046
    FORNL :  cpu time    0.0356: real time    0.0356
    STRESS:  cpu time    0.0890: real time    0.0891
    FORCOR:  cpu time    0.0589: real time    0.0589
    FORHAR:  cpu time    0.0147: real time    0.0147
    MIXING:  cpu time    0.0031: real time    0.0031
    OFIELD:  cpu time    0.0000: real time    0.0000

 ---------------------------------------------------------------------------------------------

         DFTD3 V3.0 Rev 1        
 IVDW         = 12
 DF pbe       
 parameters
 VDW_S6       =    1.0000
 VDW_S8       =    0.7875
 VDW_A1       =    0.4289
 VDW_A2       =    4.4407
 k1-k3        =   16.0000    1.3333   -4.0000
 VDW_RADIUS   =   50.2022 A
 VDW_CNRADIUS =   21.1671 A
 Edisp (eV)   -2.39690

 E6    (eV) :    -1.4259
 E8    (eV) :    -0.9710
 % E8        : 40.51
    FORVDW:  cpu time    0.0378: real time    0.0379

  FORCE on cell =-STRESS in cart. coord.  units (eV):
  Direction    XX          YY          ZZ          XY          YZ          ZX
  --------------------------------------------------------------------------------------
  Alpha Z   160.27286   160.27286   160.27286
  Ewald     215.64747   215.64746 -3005.05545     0.00000     0.00000    -0.00000
  Hartree  1622.62791  1622.62791 -1108.88230     0.00000     0.00000    -0.00000
  E(xc)    -220.78806  -220.78805  -221.68266     0.00000    -0.00000     0.00000
  Local   -2846.60650 -2846.60646  3099.29614     0.00000    -0.00000    -0.00000
  n-local   230.26132   241.22891   241.03611     0.00000    -0.05739    -0.00000
  augment    -1.74853    -1.74858    -3.31138     0.00000     0.00000     0.00000
  Kinetic   843.42112   852.12914   839.44648    -0.00000     5.88178    -0.00000
  Fock        0.00000     0.00000     0.00000     0.00000     0.00000     0.00000
  vdW        -2.46262    -2.46262    -2.16167    -0.00000    -0.00000     0.00000
  -------------------------------------------------------------------------------------
  Total      10.46277    10.46277    -1.04187     0.00000     0.00000     0.00000
  in kB     141.98268   141.98268   -14.13849     0.00000     0.00000     0.00000
  external pressure =       89.94 kB  Pullay stress =        0.00 kB


 VOLUME and BASIS-vectors are now :
 -----------------------------------------------------------------------------
  energy-cutoff  :      500.00
  volume of cell :      118.07
      direct lattice vectors                 reciprocal lattice vectors
     1.596118927 -2.764559076  0.000000000     0.313259865 -0.180860668  0.000000000
     1.596118927  2.764559076  0.000000000     0.313259865  0.180860668  0.000000000
     0.000000000  0.000000000 13.378293991     0.000000000  0.000000000  0.074747946

  length of vectors
     3.192237854  3.192237854 13.378293991     0.361721335  0.361721335  0.074747946


 FORCES acting on ions
    electron-ion (+dipol)            ewald-force                    non-local-force                 convergence-correction
 -----------------------------------------------------------------------------------------------
   -.175E-09 0.340E-05 0.381E+03   -.451E-13 0.503E-06 -.384E+03   0.000E+00 -.139E-16 0.495E+01   0.348E-13 -.387E-09 0.302E-01
   0.171E-07 -.344E-05 0.301E+03   -.116E-13 -.252E-06 -.293E+03   0.000E+00 -.607E-17 -.666E+01   -.305E-13 -.116E-08 -.287E-02
   -.280E-06 0.101E-05 -.585E+03   -.548E-14 0.401E-06 0.594E+03   0.000E+00 0.000E+00 -.303E+01   0.610E-14 -.112E-07 -.270E-01
   0.820E-07 -.817E-06 -.395E+03   0.215E-13 -.651E-06 0.392E+03   -.111E-15 -.111E-15 -.377E+01   -.383E-13 0.408E-08 -.105E-01
   -.903E-07 0.884E-06 -.259E+03   -.470E-14 0.253E-06 0.264E+03   -.278E-16 0.000E+00 -.641E+01   0.326E-14 -.171E-08 0.178E-01
   0.712E-07 -.893E-06 0.567E+03   0.156E-13 -.253E-06 -.572E+03   -.694E-17 -.180E-15 0.455E+01   -.470E-14 0.284E-09 0.214E-01
 -----------------------------------------------------------------------------------------------
   -.200E-06 0.139E-06 0.103E+02   -.299E-13 0.634E-14 0.000E+00   -.146E-15 -.311E-15 -.104E+02   -.294E-13 -.101E-07 0.290E-01
 
 
 POSITION                                       TOTAL-FORCE (eV/Angst)
 -----------------------------------------------------------------------------------
      1.59612     -0.92152      3.34457        -0.000000      0.000000      1.702658
      1.59612      0.92152     10.03372        -0.000000      0.000000      1.261312
      1.59612     -0.92152      5.68743         0.000000     -0.000000      5.314404
      1.59612      0.92152      4.90874        -0.000000     -0.000000     -6.453628
      1.59612     -0.92152     11.59788         0.000000     -0.000000     -1.288125
      1.59612      0.92152      1.78041         0.000000     -0.000000     -0.536622
 -----------------------------------------------------------------------------------
    total drift:                               -0.000000      0.000000     -0.000749


--------------------------------------------------------------------------------------------------------



  FREE ENERGIE OF THE ION-ELECTRON SYSTEM (eV)
  ---------------------------------------------------
  free  energy   TOTEN  =       -36.61277024 eV

  energy  without entropy=      -36.60880204  energy(sigma->0) =      -36.61078614
 


--------------------------------------------------------------------------------------------------------


    POTLOK:  cpu time    0.0626: real time    0.0626


--------------------------------------------------------------------------------------------------------


 stress matrix after NEB project (eV)
     10.46277     -0.00000      0.00000
      0.00000     10.46277      0.00000
      0.00000      0.00000     -1.04187
  FORCES: max atom, RMS     6.453628    3.566730
  FORCE total and by dimension    8.736669    6.453628
  Stress total and by dimension   14.833225   10.462769
 writing wavefunctions
     LOOP+:  cpu time    7.6738: real time    7.7890
    4ORBIT:  cpu time    0.0000: real time    0.0000

 total amount of memory used by VASP MPI-rank0    37007. kBytes
=======================================================================

   base      :      30000. kBytes
   nonl-proj :        502. kBytes
   fftplans  :       2328. kBytes
   grid      :       3750. kBytes
   one-center:         31. kBytes
   wavefun   :        396. kBytes
 
  
  
 General timing and accounting informations for this job:
 ========================================================
  
                  Total CPU time used (sec):        9.240
                            User time (sec):        8.465
                          System time (sec):        0.775
                         Elapsed time (sec):        9.816
  
                   Maximum memory used (kb):      137148.
                   Average memory used (kb):          N/A
  
                          Minor page faults:        24387
                          Major page faults:            0
                 Voluntary context switches:          992
