 vasp.6.2.0 18Jan21 (build Jul 31 2023 14:19:35) complex                        
  
 executed on             LinuxIFC date 2025.09.17  14:02:58
 running on    8 total cores
 distrk:  each k-point on    8 cores,    1 groups
 distr:  one band on NCORE=   4 cores,    2 groups


--------------------------------------------------------------------------------------------------------


 INCAR:
   SYSTEM = MoS2_SinglePoint_vdW_Coulomb
   PREC = Accurate
   ENCUT = 500
   GGA = PE
   ALGO = Normal
   NELM = 100
   NELMIN = 5
   EDIFF = 1E-6
   ISMEAR = 0
   SIGMA = 0.05
   IBRION = -1
   NSW = 0
   IVDW = 12
   LREAL = .FALSE.
   LCHARG = .TRUE.
   LWAVE = .TRUE.
   NWRITE = 1
   NCORE = 4

 POTCAR:    PAW_PBE Mo_sv 02Feb2006               
 POTCAR:    PAW_PBE S 06Sep2000                   
 POTCAR:    PAW_PBE Mo_sv 02Feb2006               
  local pseudopotential read in
  partial core-charges read in
  partial kinetic energy density read in
  atomic valenz-charges read in
  non local Contribution for L=           0  read in
    real space projection operators read in
  non local Contribution for L=           0  read in
    real space projection operators read in
  non local Contribution for L=           1  read in
    real space projection operators read in
  non local Contribution for L=           1  read in
    real space projection operators read in
  non local Contribution for L=           2  read in
    real space projection operators read in
  non local Contribution for L=           2  read in
    real space projection operators read in
    PAW grid and wavefunctions read in
 
   number of l-projection  operators is LMAX  =           6
   number of lm-projection operators is LMMAX =          18
 
 POTCAR:    PAW_PBE S 06Sep2000                   
  local pseudopotential read in
  partial core-charges read in
  partial kinetic energy density read in
  atomic valenz-charges read in
  non local Contribution for L=           0  read in
    real space projection operators read in
  non local Contribution for L=           0  read in
    real space projection operators read in
  non local Contribution for L=           1  read in
    real space projection operators read in
  non local Contribution for L=           1  read in
    real space projection operators read in
    PAW grid and wavefunctions read in
 
   number of l-projection  operators is LMAX  =           4
   number of lm-projection operators is LMMAX =           8
 
  PAW_PBE Mo_sv 02Feb2006               :
 energy of atom  1       EATOM=-1862.2866
 kinetic energy error for atom=    0.0074 (will be added to EATOM!!)
  PAW_PBE S 06Sep2000                   :
 energy of atom  2       EATOM= -276.8230
 kinetic energy error for atom=    0.0020 (will be added to EATOM!!)
 
 
 POSCAR: Mo S
  positions in direct lattice
  No initial velocities read in
 exchange correlation table for  LEXCH =        8
   RHO(1)=    0.500       N(1)  =     2000
   RHO(2)=  100.500       N(2)  =     4000

 VTST: version 4.0, (05/15/20)

 CHAIN: initializing optimizer
 
 OPT: Using VASP Dynamics algorithm
 CHAIN: Read ICHAIN            0
 
 POSCAR: Mo S
  positions in direct lattice
  No initial velocities read in
 


--------------------------------------------------------------------------------------------------------


 ion  position               nearest neighbor table
   1  0.667  0.333  0.250-   4 2.42   6 2.42   4 2.42   6 2.42   4 2.42   6 2.42   3 2.80
   2  0.333  0.667  0.750-   5 2.42   5 2.42   5 2.42
   3  0.667  0.333  0.459-   4 2.22   4 2.22   4 2.22   1 2.80
   4  0.333  0.667  0.367-   3 2.22   3 2.22   3 2.22   1 2.42   1 2.42   1 2.42
   5  0.667  0.333  0.867-   2 2.42   2 2.42   2 2.42
   6  0.333  0.667  0.133-   1 2.42   1 2.42   1 2.42
 
  LATTYP: Found a hexagonal cell.
 ALAT       =     3.1922378540
 C/A-ratio  =     4.1908825730
  
  Lattice vectors:
  
 A1 = (   1.5961189270,  -2.7645590765,   0.0000000000)
 A2 = (   1.5961189270,   2.7645590765,   0.0000000000)
 A3 = (   0.0000000000,   0.0000000000,  13.3782939911)


Analysis of symmetry for initial positions (statically):
=====================================================================
 Subroutine PRICEL returns:
 Original cell was already a primitive cell.
 

 Routine SETGRP: Setting up the symmetry group for a 
 hexagonal supercell.


 Subroutine GETGRP returns: Found  6 space group operations
 (whereof  6 operations were pure point group operations)
 out of a pool of 24 trial point group operations.


The static configuration has the point symmetry C_3v.


Analysis of symmetry for dynamics (positions and initial velocities):
=====================================================================
 Subroutine PRICEL returns:
 Original cell was already a primitive cell.
 

 Routine SETGRP: Setting up the symmetry group for a 
 hexagonal supercell.


 Subroutine GETGRP returns: Found  6 space group operations
 (whereof  6 operations were pure point group operations)
 out of a pool of 24 trial point group operations.


The dynamic configuration has the point symmetry C_3v.


 Subroutine INISYM returns: Found  6 space group operations
 (whereof  6 operations are pure point group operations),
 and found     1 'primitive' translations


----------------------------------------------------------------------------------------

                                     Primitive cell                                     

  volume of cell :     118.0652

  direct lattice vectors                    reciprocal lattice vectors
     1.596118927 -2.764559076  0.000000000     0.313259865 -0.180860668  0.000000000
     1.596118927  2.764559076  0.000000000     0.313259865  0.180860668  0.000000000
     0.000000000  0.000000000 13.378293991     0.000000000  0.000000000  0.074747946

  length of vectors
     3.192237854  3.192237854 13.378293991     0.361721335  0.361721335  0.074747946

  position of ions in fractional coordinates (direct lattice)
     0.666666667  0.333333333  0.250000000
     0.333333333  0.666666667  0.750000000
     0.666666667  0.333333333  0.459294249
     0.333333333  0.666666667  0.366918000
     0.666666667  0.333333333  0.866918000
     0.333333333  0.666666667  0.133082000

  ion indices of the primitive-cell ions
   primitive index   ion index
                 1           1
                 2           2
                 3           3
                 4           4
                 5           5
                 6           6

----------------------------------------------------------------------------------------

 
 
 KPOINTS: K-Spacing Value to Generate K-Mesh: 0.15

Automatic generation of k-mesh.
 Grid dimensions read from file:
 generate k-points for:    2    2    1

 Generating k-lattice:

  Cartesian coordinates                     Fractional coordinates (reciprocal lattice)
     0.156629933 -0.090430334  0.000000000     0.500000000  0.000000000  0.000000000
     0.156629933  0.090430334  0.000000000     0.000000000  0.500000000  0.000000000
     0.000000000  0.000000000  0.074747946     0.000000000  0.000000000  1.000000000

  Length of vectors
     0.180860668  0.180860668  0.074747946

  Shift w.r.t. Gamma in fractional coordinates (k-lattice)
     0.500000000  0.500000000  0.000000000

 
 Subroutine IBZKPT returns following result:
 ===========================================
 
 Found      2 irreducible k-points:
 
 Following reciprocal coordinates:
            Coordinates               Weight
  0.250000  0.250000  0.000000      6.000000
 -0.250000  0.250000  0.000000      6.000000
 
 Following cartesian coordinates:
            Coordinates               Weight
  0.156630  0.000000  0.000000      6.000000
  0.000000  0.090430  0.000000      6.000000
 


--------------------------------------------------------------------------------------------------------




 Dimension of arrays:
   k-points           NKPTS =      2   k-points in BZ     NKDIM =      2   number of bands    NBANDS=     32
   number of dos      NEDOS =    301   number of ions     NIONS =      6
   non local maximal  LDIM  =      6   non local SUM 2l+1 LMDIM =     18
   total plane-waves  NPLWV =  56448
   max r-space proj   IRMAX =      1   max aug-charges    IRDMAX=  21106
   dimension x,y,z NGX =    24 NGY =   24 NGZ =   98
   dimension x,y,z NGXF=    48 NGYF=   48 NGZF=  196
   support grid    NGXF=    48 NGYF=   48 NGZF=  196
   ions per type =               2   4
   NGX,Y,Z   is equivalent  to a cutoff of  12.50, 12.50, 12.18 a.u.
   NGXF,Y,Z  is equivalent  to a cutoff of  25.00, 25.00, 24.36 a.u.

 SYSTEM =  MoS2_SinglePoint_vdW_Coulomb           
 POSCAR =  Mo S                                    

 Startparameter for this run:
   NWRITE =      1    write-flag & timer
   PREC   = accura    normal or accurate (medium, high low for compatibility)
   ISTART =      0    job   : 0-new  1-cont  2-samecut
   ICHARG =      2    charge: 1-file 2-atom 10-const
   ISPIN  =      1    spin polarized calculation?
   LNONCOLLINEAR =      F non collinear calculations
   LSORBIT =      F    spin-orbit coupling
   INIWAV =      1    electr: 0-lowe 1-rand  2-diag
   LASPH  =      F    aspherical Exc in radial PAW
   METAGGA=      F    non-selfconsistent MetaGGA calc.

 Electronic Relaxation 1
   ENCUT  =  500.0 eV  36.75 Ry    6.06 a.u.   5.82  5.82 24.39*2*pi/ulx,y,z
   ENINI  =  500.0     initial cutoff
   ENAUG  =  446.0 eV  augmentation charge cutoff
   NELM   =    100;   NELMIN=  5; NELMDL= -5     # of ELM steps 
   EDIFF  = 0.1E-05   stopping-criterion for ELM
   LREAL  =      F    real-space projection
   NLSPLINE    = F    spline interpolate recip. space projectors
   LCOMPAT=      F    compatible to vasp.4.4
   GGA_COMPAT  = T    GGA compatible to vasp.4.4-vasp.4.6
   LMAXPAW     = -100 max onsite density
   LMAXMIX     =    2 max onsite mixed and CHGCAR
   VOSKOWN=      0    Vosko Wilk Nusair interpolation
   ROPT   =    0.00000   0.00000
 Ionic relaxation
   EDIFFG = 0.1E-04   stopping-criterion for IOM
   NSW    =      0    number of steps for IOM
   NBLOCK =      1;   KBLOCK =      1    inner block; outer block 
   IBRION =     -1    ionic relax: 0-MD 1-quasi-New 2-CG
   NFREE  =      0    steps in history (QN), initial steepest desc. (CG)
   ISIF   =      2    stress and relaxation
   IWAVPR =     10    prediction:  0-non 1-charg 2-wave 3-comb
   ISYM   =      2    0-nonsym 1-usesym 2-fastsym
   LCORR  =      T    Harris-Foulkes like correction to forces

   POTIM  = 0.5000    time-step for ionic-motion
   TEIN   =    0.0    initial temperature
   TEBEG  =    0.0;   TEEND  =   0.0 temperature during run
   SMASS  =  -3.00    Nose mass-parameter (am)
   estimated Nose-frequenzy (Omega)   =  0.10E-29 period in steps = 0.13E+47 mass=  -0.233E-27a.u.
   SCALEE = 1.0000    scale energy and forces
   NPACO  =    256;   APACO  = 16.0  distance and # of slots for P.C.
   PSTRESS=    0.0 pullay stress

  Mass of Ions in am
   POMASS =  95.94 32.07
  Ionic Valenz
   ZVAL   =  14.00  6.00
  Atomic Wigner-Seitz radii
   RWIGS  =  -1.00 -1.00
  virtual crystal weights 
   VCA    =   1.00  1.00
   NELECT =      52.0000    total number of electrons
   NUPDOWN=      -1.0000    fix difference up-down

 DOS related values:
   EMIN   =  10.00;   EMAX   =-10.00  energy-range for DOS
   EFERMI =   0.00
   ISMEAR =     0;   SIGMA  =   0.05  broadening in eV -4-tet -1-fermi 0-gaus

 Electronic relaxation 2 (details)
   IALGO  =     38    algorithm
   LDIAG  =      T    sub-space diagonalisation (order eigenvalues)
   LSUBROT=      F    optimize rotation matrix (better conditioning)
   TURBO    =      0    0=normal 1=particle mesh
   IRESTART =      0    0=no restart 2=restart with 2 vectors
   NREBOOT  =      0    no. of reboots
   NMIN     =      0    reboot dimension
   EREF     =   0.00    reference energy to select bands
   IMIX   =      4    mixing-type and parameters
     AMIX     =   0.40;   BMIX     =  1.00
     AMIX_MAG =   1.60;   BMIX_MAG =  1.00
     AMIN     =   0.10
     WC   =   100.;   INIMIX=   1;  MIXPRE=   1;  MAXMIX= -45

 Intra band minimization:
   WEIMIN = 0.0000     energy-eigenvalue tresh-hold
   EBREAK =  0.78E-08  absolut break condition
   DEPER  =   0.30     relativ break condition  

   TIME   =   0.40     timestep for ELM

  volume/ion in A,a.u.               =      19.68       132.79
  Fermi-wavevector in a.u.,A,eV,Ry     =   1.245571  2.353789 21.108736  1.551448
  Thomas-Fermi vector in A             =   2.379788
 
 Write flags
   LWAVE        =      T    write WAVECAR
   LDOWNSAMPLE  =      F    k-point downsampling of WAVECAR
   LCHARG       =      T    write CHGCAR
   LVTOT        =      F    write LOCPOT, total local potential
   LVHAR        =      F    write LOCPOT, Hartree potential only
   LELF         =      F    write electronic localiz. function (ELF)
   LORBIT       =      0    0 simple, 1 ext, 2 COOP (PROOUT), +10 PAW based schemes


 Dipole corrections
   LMONO  =      F    monopole corrections only (constant potential shift)
   LDIPOL =      F    correct potential (dipole corrections)
   IDIPOL =      0    1-x, 2-y, 3-z, 4-all directions 
   EPSILON=  1.0000000 bulk dielectric constant

 Exchange correlation treatment:
   GGA     =    PE    GGA type
   LEXCH   =     8    internal setting for exchange type
   VOSKOWN=      0    Vosko Wilk Nusair interpolation
   LHFCALC =     F    Hartree Fock is set to
   LHFONE  =     F    Hartree Fock one center treatment
   AEXX    =    0.0000 exact exchange contribution

 Linear response parameters
   LEPSILON=     F    determine dielectric tensor
   LRPA    =     F    only Hartree local field effects (RPA)
   LNABLA  =     F    use nabla operator in PAW spheres
   LVEL    =     F    velocity operator in full k-point grid
   LINTERFAST=   F  fast interpolation
   KINTER  =     0    interpolate to denser k-point grid
   CSHIFT  =0.1000    complex shift for real part using Kramers Kronig
   OMEGAMAX=  -1.0    maximum frequency
   DEG_THRESHOLD= 0.2000000E-02 threshold for treating states as degnerate
   RTIME   =   -0.100 relaxation time in fs
  (WPLASMAI=    0.000 imaginary part of plasma frequency in eV, 0.658/RTIME)
   DFIELD  = 0.0000000 0.0000000 0.0000000 field for delta impulse in time
 
 Orbital magnetization related:
   ORBITALMAG=     F  switch on orbital magnetization
   LCHIMAG   =     F  perturbation theory with respect to B field
   DQ        =  0.001000  dq finite difference perturbation B field
   LLRAUG    =     F  two centre corrections for induced B field



--------------------------------------------------------------------------------------------------------


 Static calculation
 charge density and potential will be updated during run
 non-spin polarized calculation
 Variant of blocked Davidson
 Davidson routine will perform the subspace rotation
 perform sub-space diagonalisation
    after iterative eigenvector-optimisation
 modified Broyden-mixing scheme, WC =      100.0
 initial mixing is a Kerker type mixing with AMIX =  0.4000 and BMIX =      1.0000
 Hartree-type preconditioning will be used
 using additional bands            6
 reciprocal scheme for non local part
 use partial core corrections
 calculate Harris-corrections to forces 
   (improved forces if not selfconsistent)
 use gradient corrections 
 use of overlap-Matrix (Vanderbilt PP)
 Gauss-broadening in eV      SIGMA  =   0.05


--------------------------------------------------------------------------------------------------------


  energy-cutoff  :      500.00
  volume of cell :      118.07
      direct lattice vectors                 reciprocal lattice vectors
     1.596118927 -2.764559076  0.000000000     0.313259865 -0.180860668  0.000000000
     1.596118927  2.764559076  0.000000000     0.313259865  0.180860668  0.000000000
     0.000000000  0.000000000 13.378293991     0.000000000  0.000000000  0.074747946

  length of vectors
     3.192237854  3.192237854 13.378293991     0.361721335  0.361721335  0.074747946


 
 k-points in units of 2pi/SCALE and weight: K-Spacing Value to Generate K-Mesh: 0.15
   0.15662993  0.00000000  0.00000000       0.500
   0.00000000  0.09043033  0.00000000       0.500
 
 k-points in reciprocal lattice and weights: K-Spacing Value to Generate K-Mesh: 0.15
   0.25000000  0.25000000  0.00000000       0.500
  -0.25000000  0.25000000  0.00000000       0.500
 
 position of ions in fractional coordinates (direct lattice) 
   0.66666667  0.33333333  0.25000000
   0.33333333  0.66666667  0.75000000
   0.66666667  0.33333333  0.45929425
   0.33333333  0.66666667  0.36691800
   0.66666667  0.33333333  0.86691800
   0.33333333  0.66666667  0.13308200
 
 position of ions in cartesian coordinates  (Angst):
   1.59611893 -0.92151969  3.34457350
   1.59611893  0.92151969 10.03372049
   1.59611893 -0.92151969  6.14457350
   1.59611893  0.92151969  4.90873687
   1.59611893 -0.92151969 11.59788387
   1.59611893  0.92151969  1.78041012
 


--------------------------------------------------------------------------------------------------------


 k-point   1 :   0.2500 0.2500 0.0000  plane waves:    3020
 k-point   2 :  -0.2500 0.2500 0.0000  plane waves:    2992

 maximum and minimum number of plane-waves per node :       768      742

 maximum number of plane-waves:      3020
 maximum index in each direction: 
   IXMAX=    6   IYMAX=    5   IZMAX=   24
   IXMIN=   -6   IYMIN=   -6   IZMIN=  -24


 parallel 3D FFT for wavefunctions:
    minimum data exchange during FFTs selected (reduces bandwidth)
 parallel 3D FFT for charge:
    minimum data exchange during FFTs selected (reduces bandwidth)


 total amount of memory used by VASP MPI-rank0    37007. kBytes
=======================================================================

   base      :      30000. kBytes
   nonl-proj :        502. kBytes
   fftplans  :       2328. kBytes
   grid      :       3750. kBytes
   one-center:         31. kBytes
   wavefun   :        396. kBytes
 
     INWAV:  cpu time    0.0000: real time    0.0000
 Broyden mixing: mesh for mixing (old mesh)
   NGX = 11   NGY = 11   NGZ = 49
  (NGX  = 48   NGY  = 48   NGZ  =196)
  gives a total of   5929 points

 initial charge density was supplied:
 charge density of overlapping atoms calculated
 number of electron      52.0000000 magnetization 
 keeping initial charge density in first step


--------------------------------------------------------------------------------------------------------


 Maximum index for augmentation-charges         2591 (set IRDMAX)


--------------------------------------------------------------------------------------------------------


 First call to EWALD:  gamma=   0.361
 Maximum number of real-space cells 4x 4x 1
 Maximum number of reciprocal cells 2x 2x 7

    FEWALD:  cpu time    0.0020: real time    0.0020


--------------------------------------- Iteration      1(   1)  ---------------------------------------


    POTLOK:  cpu time    0.0555: real time    0.0567
    SETDIJ:  cpu time    0.0055: real time    0.0056
     EDDAV:  cpu time    0.1342: real time    0.1344
       DOS:  cpu time    0.0003: real time    0.0003
    --------------------------------------------
      LOOP:  cpu time    0.1956: real time    0.1969

 eigenvalue-minimisations  :   144
 total energy-change (2. order) : 0.4344618E+03  (-0.2905621E+04)
 number of electron      52.0000000 magnetization 
 augmentation part       52.0000000 magnetization 

 Free energy of the ion-electron system (eV)
  ---------------------------------------------------
  alpha Z        PSCENC =       160.27286088
  Ewald energy   TEWEN  =     -2814.90806770
  -Hartree energ DENC   =     -1932.53763840
  -exchange      EXHF   =         0.00000000
  -V(xc)+E(xc)   XCENC  =       183.04773601
  PAW double counting   =      3865.57804258    -3815.84821480
  entropy T*S    EENTRO =        -0.00000003
  eigenvalues    EBANDS =       -42.98554532
  atomic energy  EATOM  =      4831.84262874
  Solvation  Ediel_sol  =         0.00000000
  ---------------------------------------------------
  free energy    TOTEN  =       434.46180196 eV

  energy without entropy =      434.46180199  energy(sigma->0) =      434.46180197


--------------------------------------------------------------------------------------------------------




--------------------------------------- Iteration      1(   2)  ---------------------------------------


     EDDAV:  cpu time    0.1349: real time    0.1375
       DOS:  cpu time    0.0002: real time    0.0002
    --------------------------------------------
      LOOP:  cpu time    0.1352: real time    0.1378

 eigenvalue-minimisations  :   152
 total energy-change (2. order) :-0.4486318E+03  (-0.4377963E+03)
 number of electron      52.0000000 magnetization 
 augmentation part       52.0000000 magnetization 

 Free energy of the ion-electron system (eV)
  ---------------------------------------------------
  alpha Z        PSCENC =       160.27286088
  Ewald energy   TEWEN  =     -2814.90806770
  -Hartree energ DENC   =     -1932.53763840
  -exchange      EXHF   =         0.00000000
  -V(xc)+E(xc)   XCENC  =       183.04773601
  PAW double counting   =      3865.57804258    -3815.84821480
  entropy T*S    EENTRO =        -0.00000000
  eigenvalues    EBANDS =      -491.61733261
  atomic energy  EATOM  =      4831.84262874
  Solvation  Ediel_sol  =         0.00000000
  ---------------------------------------------------
  free energy    TOTEN  =       -14.16998531 eV

  energy without entropy =      -14.16998531  energy(sigma->0) =      -14.16998531


--------------------------------------------------------------------------------------------------------




--------------------------------------- Iteration      1(   3)  ---------------------------------------


     EDDAV:  cpu time    0.1463: real time    0.1498
       DOS:  cpu time    0.0003: real time    0.0003
    --------------------------------------------
      LOOP:  cpu time    0.1465: real time    0.1500

 eigenvalue-minimisations  :   168
 total energy-change (2. order) :-0.2421861E+02  (-0.2372228E+02)
 number of electron      52.0000000 magnetization 
 augmentation part       52.0000000 magnetization 

 Free energy of the ion-electron system (eV)
  ---------------------------------------------------
  alpha Z        PSCENC =       160.27286088
  Ewald energy   TEWEN  =     -2814.90806770
  -Hartree energ DENC   =     -1932.53763840
  -exchange      EXHF   =         0.00000000
  -V(xc)+E(xc)   XCENC  =       183.04773601
  PAW double counting   =      3865.57804258    -3815.84821480
  entropy T*S    EENTRO =        -0.00387296
  eigenvalues    EBANDS =      -515.83206990
  atomic energy  EATOM  =      4831.84262874
  Solvation  Ediel_sol  =         0.00000000
  ---------------------------------------------------
  free energy    TOTEN  =       -38.38859556 eV

  energy without entropy =      -38.38472260  energy(sigma->0) =      -38.38665908


--------------------------------------------------------------------------------------------------------




--------------------------------------- Iteration      1(   4)  ---------------------------------------


     EDDAV:  cpu time    0.1456: real time    0.1490
       DOS:  cpu time    0.0003: real time    0.0003
    --------------------------------------------
      LOOP:  cpu time    0.1459: real time    0.1494

 eigenvalue-minimisations  :   168
 total energy-change (2. order) :-0.8029510E+00  (-0.7989841E+00)
 number of electron      52.0000000 magnetization 
 augmentation part       52.0000000 magnetization 

 Free energy of the ion-electron system (eV)
  ---------------------------------------------------
  alpha Z        PSCENC =       160.27286088
  Ewald energy   TEWEN  =     -2814.90806770
  -Hartree energ DENC   =     -1932.53763840
  -exchange      EXHF   =         0.00000000
  -V(xc)+E(xc)   XCENC  =       183.04773601
  PAW double counting   =      3865.57804258    -3815.84821480
  entropy T*S    EENTRO =        -0.00146181
  eigenvalues    EBANDS =      -516.63743208
  atomic energy  EATOM  =      4831.84262874
  Solvation  Ediel_sol  =         0.00000000
  ---------------------------------------------------
  free energy    TOTEN  =       -39.19154659 eV

  energy without entropy =      -39.19008478  energy(sigma->0) =      -39.19081568


--------------------------------------------------------------------------------------------------------




--------------------------------------- Iteration      1(   5)  ---------------------------------------


     EDDAV:  cpu time    0.1474: real time    0.1510
       DOS:  cpu time    0.0004: real time    0.0004
    CHARGE:  cpu time    0.0229: real time    0.0229
    MIXING:  cpu time    0.0014: real time    0.0014
    --------------------------------------------
      LOOP:  cpu time    0.1721: real time    0.1757

 eigenvalue-minimisations  :   168
 total energy-change (2. order) :-0.2586896E-01  (-0.2586205E-01)
 number of electron      51.9999991 magnetization 
 augmentation part        0.9935995 magnetization 

 Broyden mixing:
  rms(total) = 0.33649E+01    rms(broyden)= 0.33649E+01
  rms(prec ) = 0.34510E+01
  weight for this iteration     100.00

 Free energy of the ion-electron system (eV)
  ---------------------------------------------------
  alpha Z        PSCENC =       160.27286088
  Ewald energy   TEWEN  =     -2814.90806770
  -Hartree energ DENC   =     -1932.53763840
  -exchange      EXHF   =         0.00000000
  -V(xc)+E(xc)   XCENC  =       183.04773601
  PAW double counting   =      3865.57804258    -3815.84821480
  entropy T*S    EENTRO =        -0.00138749
  eigenvalues    EBANDS =      -516.66337536
  atomic energy  EATOM  =      4831.84262874
  Solvation  Ediel_sol  =         0.00000000
  ---------------------------------------------------
  free energy    TOTEN  =       -39.21741554 eV

  energy without entropy =      -39.21602806  energy(sigma->0) =      -39.21672180


--------------------------------------------------------------------------------------------------------




--------------------------------------- Iteration      1(   6)  ---------------------------------------


    POTLOK:  cpu time    0.0550: real time    0.0587
    SETDIJ:  cpu time    0.0054: real time    0.0054
     EDDAV:  cpu time    0.1286: real time    0.1286
       DOS:  cpu time    0.0003: real time    0.0003
    CHARGE:  cpu time    0.0222: real time    0.0222
    MIXING:  cpu time    0.0015: real time    0.0015
    --------------------------------------------
      LOOP:  cpu time    0.2129: real time    0.2166

 eigenvalue-minimisations  :   144
 total energy-change (2. order) : 0.1892914E+01  (-0.1360330E+01)
 number of electron      51.9999990 magnetization 
 augmentation part        1.7996740 magnetization 

 Broyden mixing:
  rms(total) = 0.15988E+01    rms(broyden)= 0.15988E+01
  rms(prec ) = 0.16492E+01
  weight for this iteration     100.00

 eigenvalues of (default mixing * dielectric matrix)
  average eigenvalue GAMMA=   1.4493
  1.4493

 Free energy of the ion-electron system (eV)
  ---------------------------------------------------
  alpha Z        PSCENC =       160.27286088
  Ewald energy   TEWEN  =     -2814.90806770
  -Hartree energ DENC   =     -1891.49566075
  -exchange      EXHF   =         0.00000000
  -V(xc)+E(xc)   XCENC  =       181.62104659
  PAW double counting   =      4711.42275990    -4666.75462093
  entropy T*S    EENTRO =        -0.00003529
  eigenvalues    EBANDS =      -549.32541319
  atomic energy  EATOM  =      4831.84262874
  Solvation  Ediel_sol  =         0.00000000
  ---------------------------------------------------
  free energy    TOTEN  =       -37.32450176 eV

  energy without entropy =      -37.32446647  energy(sigma->0) =      -37.32448412


--------------------------------------------------------------------------------------------------------




--------------------------------------- Iteration      1(   7)  ---------------------------------------


    POTLOK:  cpu time    0.0548: real time    0.0584
    SETDIJ:  cpu time    0.0054: real time    0.0054
     EDDAV:  cpu time    0.1286: real time    0.1286
       DOS:  cpu time    0.0003: real time    0.0003
    CHARGE:  cpu time    0.0222: real time    0.0222
    MIXING:  cpu time    0.0014: real time    0.0014
    --------------------------------------------
      LOOP:  cpu time    0.2127: real time    0.2163

 eigenvalue-minimisations  :   144
 total energy-change (2. order) :-0.9722569E-02  (-0.7433905E+00)
 number of electron      51.9999991 magnetization 
 augmentation part        1.1650256 magnetization 

 Broyden mixing:
  rms(total) = 0.12209E+01    rms(broyden)= 0.12209E+01
  rms(prec ) = 0.13146E+01
  weight for this iteration     100.00

 eigenvalues of (default mixing * dielectric matrix)
  average eigenvalue GAMMA=   1.3514
  2.1018  0.6010

 Free energy of the ion-electron system (eV)
  ---------------------------------------------------
  alpha Z        PSCENC =       160.27286088
  Ewald energy   TEWEN  =     -2814.90806770
  -Hartree energ DENC   =     -1919.89576467
  -exchange      EXHF   =         0.00000000
  -V(xc)+E(xc)   XCENC  =       182.08770797
  PAW double counting   =      5598.84386982    -5553.18997110
  entropy T*S    EENTRO =        -0.02557399
  eigenvalues    EBANDS =      -522.36191426
  atomic energy  EATOM  =      4831.84262874
  Solvation  Ediel_sol  =         0.00000000
  ---------------------------------------------------
  free energy    TOTEN  =       -37.33422433 eV

  energy without entropy =      -37.30865034  energy(sigma->0) =      -37.32143733


--------------------------------------------------------------------------------------------------------




--------------------------------------- Iteration      1(   8)  ---------------------------------------


    POTLOK:  cpu time    0.0552: real time    0.0585
    SETDIJ:  cpu time    0.0054: real time    0.0054
     EDDAV:  cpu time    0.1437: real time    0.1438
       DOS:  cpu time    0.0003: real time    0.0003
    CHARGE:  cpu time    0.0225: real time    0.0225
    MIXING:  cpu time    0.0015: real time    0.0015
    --------------------------------------------
      LOOP:  cpu time    0.2286: real time    0.2320

 eigenvalue-minimisations  :   160
 total energy-change (2. order) : 0.2404899E+00  (-0.5603858E+00)
 number of electron      51.9999990 magnetization 
 augmentation part        1.6948602 magnetization 

 Broyden mixing:
  rms(total) = 0.27457E+00    rms(broyden)= 0.27456E+00
  rms(prec ) = 0.44904E+00
  weight for this iteration     100.00

 eigenvalues of (default mixing * dielectric matrix)
  average eigenvalue GAMMA=   1.2492
  2.3067  0.9080  0.5330

 Free energy of the ion-electron system (eV)
  ---------------------------------------------------
  alpha Z        PSCENC =       160.27286088
  Ewald energy   TEWEN  =     -2814.90806770
  -Hartree energ DENC   =     -1898.83895898
  -exchange      EXHF   =         0.00000000
  -V(xc)+E(xc)   XCENC  =       181.57099108
  PAW double counting   =      6222.10382988    -6178.66002244
  entropy T*S    EENTRO =        -0.00000008
  eigenvalues    EBANDS =      -540.47699580
  atomic energy  EATOM  =      4831.84262874
  Solvation  Ediel_sol  =         0.00000000
  ---------------------------------------------------
  free energy    TOTEN  =       -37.09373443 eV

  energy without entropy =      -37.09373434  energy(sigma->0) =      -37.09373439


--------------------------------------------------------------------------------------------------------




--------------------------------------- Iteration      1(   9)  ---------------------------------------


    POTLOK:  cpu time    0.0553: real time    0.0583
    SETDIJ:  cpu time    0.0055: real time    0.0055
     EDDAV:  cpu time    0.1588: real time    0.1590
       DOS:  cpu time    0.0003: real time    0.0003
    CHARGE:  cpu time    0.0222: real time    0.0222
    MIXING:  cpu time    0.0015: real time    0.0015
    --------------------------------------------
      LOOP:  cpu time    0.2436: real time    0.2467

 eigenvalue-minimisations  :   184
 total energy-change (2. order) : 0.1919791E+00  (-0.1493451E+00)
 number of electron      51.9999990 magnetization 
 augmentation part        1.5583043 magnetization 

 Broyden mixing:
  rms(total) = 0.17162E+00    rms(broyden)= 0.17162E+00
  rms(prec ) = 0.22802E+00
  weight for this iteration     100.00

 eigenvalues of (default mixing * dielectric matrix)
  average eigenvalue GAMMA=   1.0639
  2.3182  0.9208  0.5084  0.5084

 Free energy of the ion-electron system (eV)
  ---------------------------------------------------
  alpha Z        PSCENC =       160.27286088
  Ewald energy   TEWEN  =     -2814.90806770
  -Hartree energ DENC   =     -1904.37722609
  -exchange      EXHF   =         0.00000000
  -V(xc)+E(xc)   XCENC  =       181.71099391
  PAW double counting   =      6433.35031831    -6389.63135690
  entropy T*S    EENTRO =        -0.00081381
  eigenvalues    EBANDS =      -535.16109265
  atomic energy  EATOM  =      4831.84262874
  Solvation  Ediel_sol  =         0.00000000
  ---------------------------------------------------
  free energy    TOTEN  =       -36.90175532 eV

  energy without entropy =      -36.90094151  energy(sigma->0) =      -36.90134841


--------------------------------------------------------------------------------------------------------




--------------------------------------- Iteration      1(  10)  ---------------------------------------


    POTLOK:  cpu time    0.0549: real time    0.0589
    SETDIJ:  cpu time    0.0054: real time    0.0054
     EDDAV:  cpu time    0.1458: real time    0.1462
       DOS:  cpu time    0.0004: real time    0.0004
    CHARGE:  cpu time    0.0222: real time    0.0222
    MIXING:  cpu time    0.0015: real time    0.0015
    --------------------------------------------
      LOOP:  cpu time    0.2302: real time    0.2347

 eigenvalue-minimisations  :   168
 total energy-change (2. order) : 0.2407133E-01  (-0.3237336E-01)
 number of electron      51.9999990 magnetization 
 augmentation part        1.5936561 magnetization 

 Broyden mixing:
  rms(total) = 0.11414E+00    rms(broyden)= 0.11414E+00
  rms(prec ) = 0.12880E+00
  weight for this iteration     100.00

 eigenvalues of (default mixing * dielectric matrix)
  average eigenvalue GAMMA=   1.0633
  2.2993  0.9473  0.9473  0.6810  0.4413

 Free energy of the ion-electron system (eV)
  ---------------------------------------------------
  alpha Z        PSCENC =       160.27286088
  Ewald energy   TEWEN  =     -2814.90806770
  -Hartree energ DENC   =     -1902.95769813
  -exchange      EXHF   =         0.00000000
  -V(xc)+E(xc)   XCENC  =       181.71084872
  PAW double counting   =      6437.82392776    -6394.16068253
  entropy T*S    EENTRO =        -0.00056914
  eigenvalues    EBANDS =      -536.50093259
  atomic energy  EATOM  =      4831.84262874
  Solvation  Ediel_sol  =         0.00000000
  ---------------------------------------------------
  free energy    TOTEN  =       -36.87768399 eV

  energy without entropy =      -36.87711485  energy(sigma->0) =      -36.87739942


--------------------------------------------------------------------------------------------------------




--------------------------------------- Iteration      1(  11)  ---------------------------------------


    POTLOK:  cpu time    0.0549: real time    0.0588
    SETDIJ:  cpu time    0.0054: real time    0.0054
     EDDAV:  cpu time    0.1395: real time    0.1395
       DOS:  cpu time    0.0003: real time    0.0003
    CHARGE:  cpu time    0.0222: real time    0.0222
    MIXING:  cpu time    0.0015: real time    0.0015
    --------------------------------------------
      LOOP:  cpu time    0.2239: real time    0.2278

 eigenvalue-minimisations  :   160
 total energy-change (2. order) : 0.6659609E-02  (-0.4356177E-02)
 number of electron      51.9999990 magnetization 
 augmentation part        1.5734899 magnetization 

 Broyden mixing:
  rms(total) = 0.75309E-01    rms(broyden)= 0.75309E-01
  rms(prec ) = 0.82570E-01
  weight for this iteration     100.00

 eigenvalues of (default mixing * dielectric matrix)
  average eigenvalue GAMMA=   1.2075
  2.2700  2.2700  1.0436  0.6508  0.5921  0.4186

 Free energy of the ion-electron system (eV)
  ---------------------------------------------------
  alpha Z        PSCENC =       160.27286088
  Ewald energy   TEWEN  =     -2814.90806770
  -Hartree energ DENC   =     -1904.03839967
  -exchange      EXHF   =         0.00000000
  -V(xc)+E(xc)   XCENC  =       181.72992499
  PAW double counting   =      6434.57048581    -6390.85722821
  entropy T*S    EENTRO =        -0.00148775
  eigenvalues    EBANDS =      -535.48174147
  atomic energy  EATOM  =      4831.84262874
  Solvation  Ediel_sol  =         0.00000000
  ---------------------------------------------------
  free energy    TOTEN  =       -36.87102438 eV

  energy without entropy =      -36.86953663  energy(sigma->0) =      -36.87028051


--------------------------------------------------------------------------------------------------------




--------------------------------------- Iteration      1(  12)  ---------------------------------------


    POTLOK:  cpu time    0.0549: real time    0.0582
    SETDIJ:  cpu time    0.0054: real time    0.0054
     EDDAV:  cpu time    0.1461: real time    0.1461
       DOS:  cpu time    0.0003: real time    0.0003
    CHARGE:  cpu time    0.0223: real time    0.0223
    MIXING:  cpu time    0.0016: real time    0.0016
    --------------------------------------------
      LOOP:  cpu time    0.2306: real time    0.2339

 eigenvalue-minimisations  :   168
 total energy-change (2. order) : 0.1695642E-02  (-0.1817595E-02)
 number of electron      51.9999990 magnetization 
 augmentation part        1.5607001 magnetization 

 Broyden mixing:
  rms(total) = 0.25555E-01    rms(broyden)= 0.25555E-01
  rms(prec ) = 0.28105E-01
  weight for this iteration     100.00

 eigenvalues of (default mixing * dielectric matrix)
  average eigenvalue GAMMA=   1.1907
  2.5684  2.1216  1.1464  0.7927  0.6349  0.6349  0.4358

 Free energy of the ion-electron system (eV)
  ---------------------------------------------------
  alpha Z        PSCENC =       160.27286088
  Ewald energy   TEWEN  =     -2814.90806770
  -Hartree energ DENC   =     -1904.39874433
  -exchange      EXHF   =         0.00000000
  -V(xc)+E(xc)   XCENC  =       181.74782529
  PAW double counting   =      6416.20132651    -6372.45528078
  entropy T*S    EENTRO =        -0.00478242
  eigenvalues    EBANDS =      -535.16709494
  atomic energy  EATOM  =      4831.84262874
  Solvation  Ediel_sol  =         0.00000000
  ---------------------------------------------------
  free energy    TOTEN  =       -36.86932874 eV

  energy without entropy =      -36.86454632  energy(sigma->0) =      -36.86693753


--------------------------------------------------------------------------------------------------------




--------------------------------------- Iteration      1(  13)  ---------------------------------------


    POTLOK:  cpu time    0.0549: real time    0.0579
    SETDIJ:  cpu time    0.0054: real time    0.0054
     EDDAV:  cpu time    0.1396: real time    0.1396
       DOS:  cpu time    0.0003: real time    0.0003
    CHARGE:  cpu time    0.0222: real time    0.0222
    MIXING:  cpu time    0.0016: real time    0.0016
    --------------------------------------------
      LOOP:  cpu time    0.2241: real time    0.2271

 eigenvalue-minimisations  :   160
 total energy-change (2. order) : 0.1489918E-03  (-0.1977752E-03)
 number of electron      51.9999990 magnetization 
 augmentation part        1.5658096 magnetization 

 Broyden mixing:
  rms(total) = 0.84805E-02    rms(broyden)= 0.84804E-02
  rms(prec ) = 0.92579E-02
  weight for this iteration     100.00

 eigenvalues of (default mixing * dielectric matrix)
  average eigenvalue GAMMA=   1.1864
  2.6310  2.1541  1.0548  1.0548  0.8817  0.6816  0.6010  0.4326

 Free energy of the ion-electron system (eV)
  ---------------------------------------------------
  alpha Z        PSCENC =       160.27286088
  Ewald energy   TEWEN  =     -2814.90806770
  -Hartree energ DENC   =     -1904.21289945
  -exchange      EXHF   =         0.00000000
  -V(xc)+E(xc)   XCENC  =       181.74855057
  PAW double counting   =      6427.43023335    -6383.71175379
  entropy T*S    EENTRO =        -0.00447372
  eigenvalues    EBANDS =      -535.32625862
  atomic energy  EATOM  =      4831.84262874
  Solvation  Ediel_sol  =         0.00000000
  ---------------------------------------------------
  free energy    TOTEN  =       -36.86917975 eV

  energy without entropy =      -36.86470602  energy(sigma->0) =      -36.86694289


--------------------------------------------------------------------------------------------------------




--------------------------------------- Iteration      1(  14)  ---------------------------------------


    POTLOK:  cpu time    0.0570: real time    0.0612
    SETDIJ:  cpu time    0.0054: real time    0.0054
     EDDAV:  cpu time    0.1452: real time    0.1452
       DOS:  cpu time    0.0003: real time    0.0003
    CHARGE:  cpu time    0.0222: real time    0.0222
    MIXING:  cpu time    0.0017: real time    0.0017
    --------------------------------------------
      LOOP:  cpu time    0.2318: real time    0.2360

 eigenvalue-minimisations  :   168
 total energy-change (2. order) :-0.2262163E-05  (-0.3137970E-04)
 number of electron      51.9999990 magnetization 
 augmentation part        1.5651052 magnetization 

 Broyden mixing:
  rms(total) = 0.40417E-02    rms(broyden)= 0.40417E-02
  rms(prec ) = 0.43103E-02
  weight for this iteration     100.00

 eigenvalues of (default mixing * dielectric matrix)
  average eigenvalue GAMMA=   1.2339
  2.6668  2.3136  1.2608  1.2608  1.0854  0.7480  0.7480  0.5888  0.4331

 Free energy of the ion-electron system (eV)
  ---------------------------------------------------
  alpha Z        PSCENC =       160.27286088
  Ewald energy   TEWEN  =     -2814.90806770
  -Hartree energ DENC   =     -1904.36089698
  -exchange      EXHF   =         0.00000000
  -V(xc)+E(xc)   XCENC  =       181.75390312
  PAW double counting   =      6427.60362549    -6383.87708041
  entropy T*S    EENTRO =        -0.00422748
  eigenvalues    EBANDS =      -535.19192767
  atomic energy  EATOM  =      4831.84262874
  Solvation  Ediel_sol  =         0.00000000
  ---------------------------------------------------
  free energy    TOTEN  =       -36.86918201 eV

  energy without entropy =      -36.86495453  energy(sigma->0) =      -36.86706827


--------------------------------------------------------------------------------------------------------




--------------------------------------- Iteration      1(  15)  ---------------------------------------


    POTLOK:  cpu time    0.0548: real time    0.0589
    SETDIJ:  cpu time    0.0055: real time    0.0055
     EDDAV:  cpu time    0.1354: real time    0.1354
       DOS:  cpu time    0.0003: real time    0.0003
    CHARGE:  cpu time    0.0222: real time    0.0222
    MIXING:  cpu time    0.0017: real time    0.0017
    --------------------------------------------
      LOOP:  cpu time    0.2200: real time    0.2241

 eigenvalue-minimisations  :   152
 total energy-change (2. order) :-0.1213336E-04  (-0.3442998E-05)
 number of electron      51.9999990 magnetization 
 augmentation part        1.5656379 magnetization 

 Broyden mixing:
  rms(total) = 0.18716E-02    rms(broyden)= 0.18716E-02
  rms(prec ) = 0.19968E-02
  weight for this iteration     100.00

 eigenvalues of (default mixing * dielectric matrix)
  average eigenvalue GAMMA=   1.2742
  2.8372  1.9684  1.9684  1.2026  1.2026  1.0338  0.7542  0.7542  0.4331  0.5874

 Free energy of the ion-electron system (eV)
  ---------------------------------------------------
  alpha Z        PSCENC =       160.27286088
  Ewald energy   TEWEN  =     -2814.90806770
  -Hartree energ DENC   =     -1904.38730937
  -exchange      EXHF   =         0.00000000
  -V(xc)+E(xc)   XCENC  =       181.75527900
  PAW double counting   =      6425.48888959    -6381.75991848
  entropy T*S    EENTRO =        -0.00414766
  eigenvalues    EBANDS =      -535.16940913
  atomic energy  EATOM  =      4831.84262874
  Solvation  Ediel_sol  =         0.00000000
  ---------------------------------------------------
  free energy    TOTEN  =       -36.86919414 eV

  energy without entropy =      -36.86504649  energy(sigma->0) =      -36.86712032


--------------------------------------------------------------------------------------------------------




--------------------------------------- Iteration      1(  16)  ---------------------------------------


    POTLOK:  cpu time    0.0547: real time    0.0582
    SETDIJ:  cpu time    0.0054: real time    0.0054
     EDDAV:  cpu time    0.1301: real time    0.1301
       DOS:  cpu time    0.0003: real time    0.0003
    CHARGE:  cpu time    0.0223: real time    0.0223
    MIXING:  cpu time    0.0018: real time    0.0018
    --------------------------------------------
      LOOP:  cpu time    0.2146: real time    0.2181

 eigenvalue-minimisations  :   144
 total energy-change (2. order) :-0.3602373E-05  (-0.1038506E-05)
 number of electron      51.9999990 magnetization 
 augmentation part        1.5659378 magnetization 

 Broyden mixing:
  rms(total) = 0.12160E-02    rms(broyden)= 0.12160E-02
  rms(prec ) = 0.12855E-02
  weight for this iteration     100.00

 eigenvalues of (default mixing * dielectric matrix)
  average eigenvalue GAMMA=   1.2602
  2.6486  2.2676  2.1626  1.2445  1.2445  0.4331  0.9082  0.9082  0.5889  0.7282
  0.7282

 Free energy of the ion-electron system (eV)
  ---------------------------------------------------
  alpha Z        PSCENC =       160.27286088
  Ewald energy   TEWEN  =     -2814.90806770
  -Hartree energ DENC   =     -1904.40350284
  -exchange      EXHF   =         0.00000000
  -V(xc)+E(xc)   XCENC  =       181.75595150
  PAW double counting   =      6426.73318835    -6383.00408111
  entropy T*S    EENTRO =        -0.00402079
  eigenvalues    EBANDS =      -535.15415477
  atomic energy  EATOM  =      4831.84262874
  Solvation  Ediel_sol  =         0.00000000
  ---------------------------------------------------
  free energy    TOTEN  =       -36.86919775 eV

  energy without entropy =      -36.86517695  energy(sigma->0) =      -36.86718735


--------------------------------------------------------------------------------------------------------




--------------------------------------- Iteration      1(  17)  ---------------------------------------


    POTLOK:  cpu time    0.0548: real time    0.0583
    SETDIJ:  cpu time    0.0054: real time    0.0054
     EDDAV:  cpu time    0.1151: real time    0.1151
       DOS:  cpu time    0.0003: real time    0.0003
    --------------------------------------------
      LOOP:  cpu time    0.1756: real time    0.1791

 eigenvalue-minimisations  :   120
 total energy-change (2. order) :-0.5324300E-06  (-0.1703479E-06)
 number of electron      51.9999990 magnetization 
 augmentation part        1.5659378 magnetization 

 Free energy of the ion-electron system (eV)
  ---------------------------------------------------
  alpha Z        PSCENC =       160.27286088
  Ewald energy   TEWEN  =     -2814.90806770
  -Hartree energ DENC   =     -1904.41216009
  -exchange      EXHF   =         0.00000000
  -V(xc)+E(xc)   XCENC  =       181.75627955
  PAW double counting   =      6426.13388620    -6382.40367967
  entropy T*S    EENTRO =        -0.00402440
  eigenvalues    EBANDS =      -535.14692179
  atomic energy  EATOM  =      4831.84262874
  Solvation  Ediel_sol  =         0.00000000
  ---------------------------------------------------
  free energy    TOTEN  =       -36.86919828 eV

  energy without entropy =      -36.86517388  energy(sigma->0) =      -36.86718608


--------------------------------------------------------------------------------------------------------




 average (electrostatic) potential at core
  the test charge radii are     1.0818  0.9698
  (the norm of the test charge is              1.0000)
       1 -75.5599       2 -74.7817       3 -86.8635       4 -87.8047       5 -84.8859
       6 -85.5874
 
 
 
 E-fermi :   6.6807     XC(G=0): -10.2038     alpha+bet :-12.2268

 Fermi energy:         6.6807238557

 k-point     1 :       0.2500    0.2500    0.0000
  band No.  band energies     occupation 
      1     -54.8266      2.00000
      2     -53.9650      2.00000
      3     -29.1166      2.00000
      4     -29.0621      2.00000
      5     -28.9691      2.00000
      6     -28.1252      2.00000
      7     -28.0928      2.00000
      8     -28.0003      2.00000
      9     -10.1810      2.00000
     10      -7.2646      2.00000
     11      -6.3502      2.00000
     12      -5.4804      2.00000
     13      -2.2044      2.00000
     14      -1.4998      2.00000
     15       0.0947      2.00000
     16       1.2380      2.00000
     17       1.9478      2.00000
     18       2.3367      2.00000
     19       3.0953      2.00000
     20       3.2659      2.00000
     21       3.7063      2.00000
     22       3.8051      2.00000
     23       5.2616      2.00000
     24       5.9621      2.00000
     25       6.2908      2.00000
     26       6.7505      0.04844
     27       7.2044      0.00000
     28       7.7466      0.00000
     29       8.2882      0.00000
     30       8.6122      0.00000
     31       8.9032      0.00000
     32       9.5122      0.00000

 k-point     2 :      -0.2500    0.2500    0.0000
  band No.  band energies     occupation 
      1     -54.8450      2.00000
      2     -53.9816      2.00000
      3     -29.1016      2.00000
      4     -29.0013      2.00000
      5     -28.8556      2.00000
      6     -28.1235      2.00000
      7     -28.0232      2.00000
      8     -27.9006      2.00000
      9     -11.8319      2.00000
     10      -7.1152      2.00000
     11      -6.2041      2.00000
     12      -5.7626      2.00000
     13      -1.5543      2.00000
     14       0.3502      2.00000
     15       0.3779      2.00000
     16       1.8751      2.00000
     17       2.4003      2.00000
     18       2.6496      2.00000
     19       3.2652      2.00000
     20       3.6959      2.00000
     21       4.1352      2.00000
     22       4.6800      2.00000
     23       5.1753      2.00000
     24       5.6426      2.00000
     25       6.1134      2.00000
     26       6.3124      2.00000
     27       6.6110      1.95156
     28       7.6649      0.00000
     29       7.8234      0.00000
     30       8.2046      0.00000
     31       8.4759      0.00000
     32       9.0185      0.00000


--------------------------------------------------------------------------------------------------------


 soft charge-density along one line, spin component           1
         0         1         2         3         4         5         6         7         8         9
 total charge-density along one line
 
 pseudopotential strength for first ion, spin component:           1
 -5.141  11.364   0.000  -0.026  -0.000  -0.000   0.030   0.000
 11.364   3.273  -0.000   0.024   0.000   0.000  -0.003  -0.000
  0.000  -0.000 -18.071   0.000   0.000   8.878  -0.000  -0.000
 -0.026   0.024   0.000 -18.079  -0.000  -0.000   8.888   0.000
 -0.000   0.000   0.000  -0.000 -18.071  -0.000   0.000   8.878
 -0.000   0.000   8.878  -0.000  -0.000   5.779   0.000   0.000
  0.030  -0.003  -0.000   8.888   0.000   0.000   5.774  -0.000
  0.000  -0.000  -0.000   0.000   8.878   0.000  -0.000   5.779
  0.000  -0.000  -0.000   0.000   0.008   0.000  -0.000  -0.004
  0.000  -0.000  -0.025   0.000   0.000   0.015  -0.000  -0.000
 -0.006   0.004  -0.000  -0.032   0.000   0.000   0.019  -0.000
 -0.000   0.000   0.000  -0.000  -0.025  -0.000   0.000   0.015
 -0.000   0.000   0.008   0.000  -0.000  -0.004  -0.000   0.000
  0.000  -0.000  -0.000   0.000   0.008   0.000  -0.000  -0.004
  0.000  -0.000  -0.025   0.000   0.000   0.016  -0.000  -0.000
 -0.006   0.004  -0.000  -0.032   0.000   0.000   0.020  -0.000
 -0.000   0.000   0.000  -0.000  -0.025  -0.000   0.000   0.016
 -0.000   0.000   0.008   0.000  -0.000  -0.004  -0.000   0.000
 total augmentation occupancy for first ion, spin component:           1
  1.997  -0.033   0.000   0.001  -0.000   0.000   0.002  -0.000  -0.000   0.000   0.001  -0.000   0.000   0.000   0.000  -0.000
 -0.033   1.175   0.000   0.020  -0.000   0.000  -0.033  -0.000   0.000   0.000  -0.098   0.000  -0.000   0.000   0.000   0.143
  0.000   0.000   1.999   0.000   0.000  -0.036   0.000  -0.000   0.000   0.010   0.000  -0.000   0.009   0.000  -0.002   0.000
  0.001   0.020   0.000   2.000  -0.000   0.000  -0.038   0.000  -0.000   0.000   0.005   0.000   0.000  -0.000   0.000   0.005
 -0.000  -0.000   0.000  -0.000   1.999  -0.000  -0.000  -0.036   0.009   0.000   0.000   0.010   0.000   0.000   0.000  -0.000
  0.000   0.000  -0.036   0.000  -0.000   0.088   0.000   0.000   0.000  -0.011   0.000   0.000   0.171  -0.000   0.008  -0.000
  0.002  -0.033   0.000  -0.038  -0.000   0.000   0.107   0.000  -0.000   0.000  -0.022  -0.000  -0.000   0.000   0.000   0.017
 -0.000  -0.000  -0.000   0.000  -0.036   0.000   0.000   0.088   0.171  -0.000   0.000  -0.011   0.000  -0.195   0.000   0.000
 -0.000   0.000   0.000  -0.000   0.009   0.000  -0.000   0.171   2.762   0.000  -0.000  -0.412   0.000  -3.132  -0.000  -0.000
  0.000   0.000   0.010   0.000   0.000  -0.011   0.000  -0.000   0.000   4.961  -0.000  -0.000  -0.412   0.000  -5.761   0.000
  0.001  -0.098   0.000   0.005   0.000   0.000  -0.022   0.000  -0.000  -0.000   2.963  -0.000   0.000  -0.000   0.000  -2.913
 -0.000   0.000  -0.000   0.000   0.010   0.000   0.000  -0.011  -0.412  -0.000  -0.000   4.961  -0.000   0.214   0.000  -0.000
  0.000  -0.000   0.009   0.000   0.000   0.171  -0.000   0.000   0.000  -0.412   0.000  -0.000   2.762   0.000   0.215  -0.000
  0.000   0.000   0.000  -0.000   0.000  -0.000   0.000  -0.195  -3.132   0.000  -0.000   0.214   0.000   4.317   0.000   0.000
  0.000   0.000  -0.002   0.000   0.000   0.008   0.000   0.000  -0.000  -5.761   0.000   0.000   0.215   0.000   7.231  -0.000
 -0.000   0.143   0.000   0.005  -0.000  -0.000   0.017   0.000  -0.000   0.000  -2.913  -0.000  -0.000   0.000  -0.000   3.789
  0.000  -0.000   0.000   0.000  -0.002   0.000   0.000   0.008   0.215  -0.000  -0.000  -5.761   0.000  -0.079  -0.000  -0.000
 -0.000   0.000   0.000   0.000   0.000  -0.195   0.000   0.000  -0.000   0.214  -0.000  -0.000  -3.132   0.000  -0.079   0.000


------------------------ aborting loop because EDIFF is reached ----------------------------------------


    CHARGE:  cpu time    0.0222: real time    0.0222
    FORLOC:  cpu time    0.0047: real time    0.0047
    FORNL :  cpu time    0.0357: real time    0.0357
    STRESS:  cpu time    0.0907: real time    0.0908
    FORCOR:  cpu time    0.0587: real time    0.0587
    FORHAR:  cpu time    0.0146: real time    0.0146
    MIXING:  cpu time    0.0018: real time    0.0018
    OFIELD:  cpu time    0.0000: real time    0.0000

 ---------------------------------------------------------------------------------------------

         DFTD3 V3.0 Rev 1        
 IVDW         = 12
 DF pbe       
 parameters
 VDW_S6       =    1.0000
 VDW_S8       =    0.7875
 VDW_A1       =    0.4289
 VDW_A2       =    4.4407
 k1-k3        =   16.0000    1.3333   -4.0000
 VDW_RADIUS   =   50.2022 A
 VDW_CNRADIUS =   21.1671 A
 Edisp (eV)   -2.36722

 E6    (eV) :    -1.4096
 E8    (eV) :    -0.9577
 % E8        : 40.46
    FORVDW:  cpu time    0.0374: real time    0.0375

  FORCE on cell =-STRESS in cart. coord.  units (eV):
  Direction    XX          YY          ZZ          XY          YZ          ZX
  --------------------------------------------------------------------------------------
  Alpha Z   160.27286   160.27286   160.27286
  Ewald     -39.40985   -39.40986 -2736.09094     0.00000     0.00000    -0.00000
  Hartree  1396.40415  1396.40415  -888.38125     0.00000    -0.00000    -0.00000
  E(xc)    -219.20473  -219.20473  -219.75279     0.00000    -0.00000     0.00000
  Local   -2364.72406 -2364.72402  2620.21319     0.00000    -0.00000     0.00000
  n-local   227.57762   243.09789   236.02449     0.00001     1.27061    -0.00000
  augment    -2.40496    -2.40501    -2.76170     0.00000     0.00000    -0.00000
  Kinetic   833.00553   834.51304   834.35168     0.00000     6.41850    -0.00000
  Fock        0.00000     0.00000     0.00000     0.00000     0.00000     0.00000
  vdW        -2.43640    -2.43640    -2.23854    -0.00000    -0.00000     0.00000
  -------------------------------------------------------------------------------------
  Total      -2.40596    -2.40596     1.63702    -0.00000    -0.00000    -0.00000
  in kB     -32.64950   -32.64950    22.21480    -0.00000    -0.00000    -0.00000
  external pressure =      -14.36 kB  Pullay stress =        0.00 kB


 VOLUME and BASIS-vectors are now :
 -----------------------------------------------------------------------------
  energy-cutoff  :      500.00
  volume of cell :      118.07
      direct lattice vectors                 reciprocal lattice vectors
     1.596118927 -2.764559076  0.000000000     0.313259865 -0.180860668  0.000000000
     1.596118927  2.764559076  0.000000000     0.313259865  0.180860668  0.000000000
     0.000000000  0.000000000 13.378293991     0.000000000  0.000000000  0.074747946

  length of vectors
     3.192237854  3.192237854 13.378293991     0.361721335  0.361721335  0.074747946


 FORCES acting on ions
    electron-ion (+dipol)            ewald-force                    non-local-force                 convergence-correction
 -----------------------------------------------------------------------------------------------
   0.122E-07 0.335E-05 0.302E+03   -.425E-13 0.503E-06 -.308E+03   0.000E+00 0.173E-16 0.396E+01   0.372E-13 -.384E-09 0.313E-01
   0.174E-07 -.345E-05 0.243E+03   -.124E-13 -.253E-06 -.234E+03   -.173E-17 -.382E-16 -.701E+01   -.466E-13 0.217E-09 -.248E-01
   -.190E-06 0.963E-06 -.449E+03   -.429E-14 0.200E-06 0.456E+03   -.555E-16 -.111E-15 -.239E+01   0.131E-13 -.403E-09 0.121E-02
   0.673E-07 -.781E-06 -.352E+03   0.193E-13 -.449E-06 0.345E+03   -.222E-15 0.000E+00 0.469E+01   -.698E-14 -.415E-08 0.121E-01
   -.864E-07 0.882E-06 -.284E+03   -.472E-14 0.253E-06 0.289E+03   0.000E+00 -.111E-15 -.617E+01   0.103E-13 -.217E-09 0.318E-03
   0.773E-07 -.889E-06 0.542E+03   0.148E-13 -.253E-06 -.547E+03   0.278E-16 -.833E-16 0.550E+01   -.754E-14 -.216E-08 0.852E-02
 -----------------------------------------------------------------------------------------------
   -.102E-06 0.815E-07 0.139E+01   -.299E-13 0.634E-14 0.000E+00   -.252E-15 -.326E-15 -.142E+01   -.477E-15 -.710E-08 0.286E-01
 
 
 POSITION                                       TOTAL-FORCE (eV/Angst)
 -----------------------------------------------------------------------------------
      1.59612     -0.92152      3.34457         0.000000     -0.000000     -1.882031
      1.59612      0.92152     10.03372        -0.000000     -0.000000      1.184457
      1.59612     -0.92152      6.14457         0.000000     -0.000000      4.266386
      1.59612      0.92152      4.90874         0.000000      0.000000     -2.697595
      1.59612     -0.92152     11.59788         0.000000      0.000000     -1.362502
      1.59612      0.92152      1.78041        -0.000000      0.000000      0.491285
 -----------------------------------------------------------------------------------
    total drift:                               -0.000000      0.000000     -0.000167


--------------------------------------------------------------------------------------------------------



  FREE ENERGIE OF THE ION-ELECTRON SYSTEM (eV)
  ---------------------------------------------------
  free  energy   TOTEN  =       -39.23641592 eV

  energy  without entropy=      -39.23239152  energy(sigma->0) =      -39.23440372
 


--------------------------------------------------------------------------------------------------------


    POTLOK:  cpu time    0.0602: real time    0.0602


--------------------------------------------------------------------------------------------------------


 stress matrix after NEB project (eV)
     -2.40596     -0.00000     -0.00000
     -0.00000     -2.40596      0.00000
     -0.00000     -0.00000      1.63702
  FORCES: max atom, RMS     4.266386    2.328154
  FORCE total and by dimension    5.702790    4.266386
  Stress total and by dimension    3.775855    2.405956
 writing wavefunctions
     LOOP+:  cpu time    4.5646: real time    4.6355
    4ORBIT:  cpu time    0.0000: real time    0.0000

 total amount of memory used by VASP MPI-rank0    37007. kBytes
=======================================================================

   base      :      30000. kBytes
   nonl-proj :        502. kBytes
   fftplans  :       2328. kBytes
   grid      :       3750. kBytes
   one-center:         31. kBytes
   wavefun   :        396. kBytes
 
  
  
 General timing and accounting informations for this job:
 ========================================================
  
                  Total CPU time used (sec):        6.167
                            User time (sec):        5.371
                          System time (sec):        0.796
                         Elapsed time (sec):        6.816
  
                   Maximum memory used (kb):      132204.
                   Average memory used (kb):          N/A
  
                          Minor page faults:        21432
                          Major page faults:            0
                 Voluntary context switches:          976
