 vasp.6.2.0 18Jan21 (build Jul 31 2023 14:19:35) complex                        
  
 executed on             LinuxIFC date 2025.09.17  12:24:44
 running on    8 total cores
 distrk:  each k-point on    8 cores,    1 groups
 distr:  one band on NCORE=   4 cores,    2 groups


--------------------------------------------------------------------------------------------------------


 INCAR:
   SYSTEM = MoS2_SinglePoint_vdW_Coulomb
   PREC = Accurate
   ENCUT = 500
   GGA = PE
   ALGO = Normal
   NELM = 100
   NELMIN = 5
   EDIFF = 1E-6
   ISMEAR = 0
   SIGMA = 0.05
   IBRION = -1
   NSW = 0
   IVDW = 12
   LREAL = .FALSE.
   LCHARG = .TRUE.
   LWAVE = .TRUE.
   NWRITE = 1
   NCORE = 4

 POTCAR:    PAW_PBE Mo_sv 02Feb2006               
 POTCAR:    PAW_PBE S 06Sep2000                   
 POTCAR:    PAW_PBE Mo_sv 02Feb2006               
  local pseudopotential read in
  partial core-charges read in
  partial kinetic energy density read in
  atomic valenz-charges read in
  non local Contribution for L=           0  read in
    real space projection operators read in
  non local Contribution for L=           0  read in
    real space projection operators read in
  non local Contribution for L=           1  read in
    real space projection operators read in
  non local Contribution for L=           1  read in
    real space projection operators read in
  non local Contribution for L=           2  read in
    real space projection operators read in
  non local Contribution for L=           2  read in
    real space projection operators read in
    PAW grid and wavefunctions read in
 
   number of l-projection  operators is LMAX  =           6
   number of lm-projection operators is LMMAX =          18
 
 POTCAR:    PAW_PBE S 06Sep2000                   
  local pseudopotential read in
  partial core-charges read in
  partial kinetic energy density read in
  atomic valenz-charges read in
  non local Contribution for L=           0  read in
    real space projection operators read in
  non local Contribution for L=           0  read in
    real space projection operators read in
  non local Contribution for L=           1  read in
    real space projection operators read in
  non local Contribution for L=           1  read in
    real space projection operators read in
    PAW grid and wavefunctions read in
 
   number of l-projection  operators is LMAX  =           4
   number of lm-projection operators is LMMAX =           8
 
  PAW_PBE Mo_sv 02Feb2006               :
 energy of atom  1       EATOM=-1862.2866
 kinetic energy error for atom=    0.0074 (will be added to EATOM!!)
  PAW_PBE S 06Sep2000                   :
 energy of atom  2       EATOM= -276.8230
 kinetic energy error for atom=    0.0020 (will be added to EATOM!!)
 
 
 POSCAR: Mo S
  positions in direct lattice
  No initial velocities read in
 exchange correlation table for  LEXCH =        8
   RHO(1)=    0.500       N(1)  =     2000
   RHO(2)=  100.500       N(2)  =     4000

 VTST: version 4.0, (05/15/20)

 CHAIN: initializing optimizer
 
 OPT: Using VASP Dynamics algorithm
 CHAIN: Read ICHAIN            0
 
 POSCAR: Mo S
  positions in direct lattice
  No initial velocities read in
 


--------------------------------------------------------------------------------------------------------


 ion  position               nearest neighbor table
   1  0.667  0.333  0.250-   6 2.42   6 2.42   6 2.42   4 2.42   4 2.92
   2  0.333  0.667  0.750-   3 2.42   5 2.42   3 2.42   5 2.42   3 2.42   5 2.42
   3  0.667  0.333  0.633-   2 2.42   2 2.42   2 2.42
   4  0.059  0.680  0.407-   1 2.42   1 2.92
   5  0.667  0.333  0.867-   2 2.42   2 2.42   2 2.42
   6  0.333  0.667  0.133-   1 2.42   1 2.42   1 2.42
 
  LATTYP: Found a hexagonal cell.
 ALAT       =     3.1922378540
 C/A-ratio  =     4.1908825730
  
  Lattice vectors:
  
 A1 = (   1.5961189270,  -2.7645590765,   0.0000000000)
 A2 = (   1.5961189270,   2.7645590765,   0.0000000000)
 A3 = (   0.0000000000,   0.0000000000,  13.3782939911)


Analysis of symmetry for initial positions (statically):
=====================================================================
 Subroutine PRICEL returns:
 Original cell was already a primitive cell.
 

 Routine SETGRP: Setting up the symmetry group for a 
 hexagonal supercell.


 Subroutine GETGRP returns: Found  1 space group operations
 (whereof  1 operations were pure point group operations)
 out of a pool of 24 trial point group operations.


The static configuration has the point symmetry C_1 .


Analysis of symmetry for dynamics (positions and initial velocities):
=====================================================================
 Subroutine PRICEL returns:
 Original cell was already a primitive cell.
 

 Routine SETGRP: Setting up the symmetry group for a 
 hexagonal supercell.


 Subroutine GETGRP returns: Found  1 space group operations
 (whereof  1 operations were pure point group operations)
 out of a pool of 24 trial point group operations.


The dynamic configuration has the point symmetry C_1 .


 Subroutine INISYM returns: Found  1 space group operations
 (whereof  1 operations are pure point group operations),
 and found     1 'primitive' translations


----------------------------------------------------------------------------------------

                                     Primitive cell                                     

  volume of cell :     118.0652

  direct lattice vectors                    reciprocal lattice vectors
     1.596118927 -2.764559076  0.000000000     0.313259865 -0.180860668  0.000000000
     1.596118927  2.764559076  0.000000000     0.313259865  0.180860668  0.000000000
     0.000000000  0.000000000 13.378293991     0.000000000  0.000000000  0.074747946

  length of vectors
     3.192237854  3.192237854 13.378293991     0.361721335  0.361721335  0.074747946

  position of ions in fractional coordinates (direct lattice)
     0.666666667  0.333333333  0.250000000
     0.333333333  0.666666667  0.750000000
     0.666666667  0.333333333  0.633082000
     0.058705558  0.679934328  0.407462578
     0.666666667  0.333333333  0.866918000
     0.333333333  0.666666667  0.133082000

  ion indices of the primitive-cell ions
   primitive index   ion index
                 1           1
                 2           2
                 3           3
                 4           4
                 5           5
                 6           6

----------------------------------------------------------------------------------------

 
 
 KPOINTS: K-Spacing Value to Generate K-Mesh: 0.15

Automatic generation of k-mesh.
 Grid dimensions read from file:
 generate k-points for:    2    2    1

 Generating k-lattice:

  Cartesian coordinates                     Fractional coordinates (reciprocal lattice)
     0.156629933 -0.090430334  0.000000000     0.500000000  0.000000000  0.000000000
     0.156629933  0.090430334  0.000000000     0.000000000  0.500000000  0.000000000
     0.000000000  0.000000000  0.074747946     0.000000000  0.000000000  1.000000000

  Length of vectors
     0.180860668  0.180860668  0.074747946

  Shift w.r.t. Gamma in fractional coordinates (k-lattice)
     0.500000000  0.500000000  0.000000000

 
 Subroutine IBZKPT returns following result:
 ===========================================
 
 Found      6 irreducible k-points:
 
 Following reciprocal coordinates:
            Coordinates               Weight
  0.250000  0.250000  0.000000      2.000000
 -0.250000  0.500000  0.000000      2.000000
  0.500000  0.250000  0.000000      2.000000
 -0.250000  0.250000  0.000000      2.000000
 -0.250000  0.000000  0.000000      2.000000
  0.000000 -0.250000  0.000000      2.000000
 
 Following cartesian coordinates:
            Coordinates               Weight
  0.156630  0.000000  0.000000      2.000000
  0.078315  0.135646  0.000000      2.000000
  0.234945 -0.045215  0.000000      2.000000
  0.000000  0.090430  0.000000      2.000000
 -0.078315  0.045215  0.000000      2.000000
 -0.078315 -0.045215  0.000000      2.000000
 


--------------------------------------------------------------------------------------------------------




 Dimension of arrays:
   k-points           NKPTS =      6   k-points in BZ     NKDIM =      6   number of bands    NBANDS=     32
   number of dos      NEDOS =    301   number of ions     NIONS =      6
   non local maximal  LDIM  =      6   non local SUM 2l+1 LMDIM =     18
   total plane-waves  NPLWV =  56448
   max r-space proj   IRMAX =      1   max aug-charges    IRDMAX=  21106
   dimension x,y,z NGX =    24 NGY =   24 NGZ =   98
   dimension x,y,z NGXF=    48 NGYF=   48 NGZF=  196
   support grid    NGXF=    48 NGYF=   48 NGZF=  196
   ions per type =               2   4
   NGX,Y,Z   is equivalent  to a cutoff of  12.50, 12.50, 12.18 a.u.
   NGXF,Y,Z  is equivalent  to a cutoff of  25.00, 25.00, 24.36 a.u.

 SYSTEM =  MoS2_SinglePoint_vdW_Coulomb           
 POSCAR =  Mo S                                    

 Startparameter for this run:
   NWRITE =      1    write-flag & timer
   PREC   = accura    normal or accurate (medium, high low for compatibility)
   ISTART =      0    job   : 0-new  1-cont  2-samecut
   ICHARG =      2    charge: 1-file 2-atom 10-const
   ISPIN  =      1    spin polarized calculation?
   LNONCOLLINEAR =      F non collinear calculations
   LSORBIT =      F    spin-orbit coupling
   INIWAV =      1    electr: 0-lowe 1-rand  2-diag
   LASPH  =      F    aspherical Exc in radial PAW
   METAGGA=      F    non-selfconsistent MetaGGA calc.

 Electronic Relaxation 1
   ENCUT  =  500.0 eV  36.75 Ry    6.06 a.u.   5.82  5.82 24.39*2*pi/ulx,y,z
   ENINI  =  500.0     initial cutoff
   ENAUG  =  446.0 eV  augmentation charge cutoff
   NELM   =    100;   NELMIN=  5; NELMDL= -5     # of ELM steps 
   EDIFF  = 0.1E-05   stopping-criterion for ELM
   LREAL  =      F    real-space projection
   NLSPLINE    = F    spline interpolate recip. space projectors
   LCOMPAT=      F    compatible to vasp.4.4
   GGA_COMPAT  = T    GGA compatible to vasp.4.4-vasp.4.6
   LMAXPAW     = -100 max onsite density
   LMAXMIX     =    2 max onsite mixed and CHGCAR
   VOSKOWN=      0    Vosko Wilk Nusair interpolation
   ROPT   =    0.00000   0.00000
 Ionic relaxation
   EDIFFG = 0.1E-04   stopping-criterion for IOM
   NSW    =      0    number of steps for IOM
   NBLOCK =      1;   KBLOCK =      1    inner block; outer block 
   IBRION =     -1    ionic relax: 0-MD 1-quasi-New 2-CG
   NFREE  =      0    steps in history (QN), initial steepest desc. (CG)
   ISIF   =      2    stress and relaxation
   IWAVPR =     10    prediction:  0-non 1-charg 2-wave 3-comb
   ISYM   =      2    0-nonsym 1-usesym 2-fastsym
   LCORR  =      T    Harris-Foulkes like correction to forces

   POTIM  = 0.5000    time-step for ionic-motion
   TEIN   =    0.0    initial temperature
   TEBEG  =    0.0;   TEEND  =   0.0 temperature during run
   SMASS  =  -3.00    Nose mass-parameter (am)
   estimated Nose-frequenzy (Omega)   =  0.10E-29 period in steps = 0.13E+47 mass=  -0.233E-27a.u.
   SCALEE = 1.0000    scale energy and forces
   NPACO  =    256;   APACO  = 16.0  distance and # of slots for P.C.
   PSTRESS=    0.0 pullay stress

  Mass of Ions in am
   POMASS =  95.94 32.07
  Ionic Valenz
   ZVAL   =  14.00  6.00
  Atomic Wigner-Seitz radii
   RWIGS  =  -1.00 -1.00
  virtual crystal weights 
   VCA    =   1.00  1.00
   NELECT =      52.0000    total number of electrons
   NUPDOWN=      -1.0000    fix difference up-down

 DOS related values:
   EMIN   =  10.00;   EMAX   =-10.00  energy-range for DOS
   EFERMI =   0.00
   ISMEAR =     0;   SIGMA  =   0.05  broadening in eV -4-tet -1-fermi 0-gaus

 Electronic relaxation 2 (details)
   IALGO  =     38    algorithm
   LDIAG  =      T    sub-space diagonalisation (order eigenvalues)
   LSUBROT=      F    optimize rotation matrix (better conditioning)
   TURBO    =      0    0=normal 1=particle mesh
   IRESTART =      0    0=no restart 2=restart with 2 vectors
   NREBOOT  =      0    no. of reboots
   NMIN     =      0    reboot dimension
   EREF     =   0.00    reference energy to select bands
   IMIX   =      4    mixing-type and parameters
     AMIX     =   0.40;   BMIX     =  1.00
     AMIX_MAG =   1.60;   BMIX_MAG =  1.00
     AMIN     =   0.10
     WC   =   100.;   INIMIX=   1;  MIXPRE=   1;  MAXMIX= -45

 Intra band minimization:
   WEIMIN = 0.0000     energy-eigenvalue tresh-hold
   EBREAK =  0.78E-08  absolut break condition
   DEPER  =   0.30     relativ break condition  

   TIME   =   0.40     timestep for ELM

  volume/ion in A,a.u.               =      19.68       132.79
  Fermi-wavevector in a.u.,A,eV,Ry     =   1.245571  2.353789 21.108736  1.551448
  Thomas-Fermi vector in A             =   2.379788
 
 Write flags
   LWAVE        =      T    write WAVECAR
   LDOWNSAMPLE  =      F    k-point downsampling of WAVECAR
   LCHARG       =      T    write CHGCAR
   LVTOT        =      F    write LOCPOT, total local potential
   LVHAR        =      F    write LOCPOT, Hartree potential only
   LELF         =      F    write electronic localiz. function (ELF)
   LORBIT       =      0    0 simple, 1 ext, 2 COOP (PROOUT), +10 PAW based schemes


 Dipole corrections
   LMONO  =      F    monopole corrections only (constant potential shift)
   LDIPOL =      F    correct potential (dipole corrections)
   IDIPOL =      0    1-x, 2-y, 3-z, 4-all directions 
   EPSILON=  1.0000000 bulk dielectric constant

 Exchange correlation treatment:
   GGA     =    PE    GGA type
   LEXCH   =     8    internal setting for exchange type
   VOSKOWN=      0    Vosko Wilk Nusair interpolation
   LHFCALC =     F    Hartree Fock is set to
   LHFONE  =     F    Hartree Fock one center treatment
   AEXX    =    0.0000 exact exchange contribution

 Linear response parameters
   LEPSILON=     F    determine dielectric tensor
   LRPA    =     F    only Hartree local field effects (RPA)
   LNABLA  =     F    use nabla operator in PAW spheres
   LVEL    =     F    velocity operator in full k-point grid
   LINTERFAST=   F  fast interpolation
   KINTER  =     0    interpolate to denser k-point grid
   CSHIFT  =0.1000    complex shift for real part using Kramers Kronig
   OMEGAMAX=  -1.0    maximum frequency
   DEG_THRESHOLD= 0.2000000E-02 threshold for treating states as degnerate
   RTIME   =   -0.100 relaxation time in fs
  (WPLASMAI=    0.000 imaginary part of plasma frequency in eV, 0.658/RTIME)
   DFIELD  = 0.0000000 0.0000000 0.0000000 field for delta impulse in time
 
 Orbital magnetization related:
   ORBITALMAG=     F  switch on orbital magnetization
   LCHIMAG   =     F  perturbation theory with respect to B field
   DQ        =  0.001000  dq finite difference perturbation B field
   LLRAUG    =     F  two centre corrections for induced B field



--------------------------------------------------------------------------------------------------------


 Static calculation
 charge density and potential will be updated during run
 non-spin polarized calculation
 Variant of blocked Davidson
 Davidson routine will perform the subspace rotation
 perform sub-space diagonalisation
    after iterative eigenvector-optimisation
 modified Broyden-mixing scheme, WC =      100.0
 initial mixing is a Kerker type mixing with AMIX =  0.4000 and BMIX =      1.0000
 Hartree-type preconditioning will be used
 using additional bands            6
 reciprocal scheme for non local part
 use partial core corrections
 calculate Harris-corrections to forces 
   (improved forces if not selfconsistent)
 use gradient corrections 
 use of overlap-Matrix (Vanderbilt PP)
 Gauss-broadening in eV      SIGMA  =   0.05


--------------------------------------------------------------------------------------------------------


  energy-cutoff  :      500.00
  volume of cell :      118.07
      direct lattice vectors                 reciprocal lattice vectors
     1.596118927 -2.764559076  0.000000000     0.313259865 -0.180860668  0.000000000
     1.596118927  2.764559076  0.000000000     0.313259865  0.180860668  0.000000000
     0.000000000  0.000000000 13.378293991     0.000000000  0.000000000  0.074747946

  length of vectors
     3.192237854  3.192237854 13.378293991     0.361721335  0.361721335  0.074747946


 
 k-points in units of 2pi/SCALE and weight: K-Spacing Value to Generate K-Mesh: 0.15
   0.15662993  0.00000000  0.00000000       0.167
   0.07831497  0.13564550  0.00000000       0.167
   0.23494490 -0.04521517  0.00000000       0.167
   0.00000000  0.09043033  0.00000000       0.167
  -0.07831497  0.04521517  0.00000000       0.167
  -0.07831497 -0.04521517  0.00000000       0.167
 
 k-points in reciprocal lattice and weights: K-Spacing Value to Generate K-Mesh: 0.15
   0.25000000  0.25000000  0.00000000       0.167
  -0.25000000  0.50000000  0.00000000       0.167
   0.50000000  0.25000000  0.00000000       0.167
  -0.25000000  0.25000000  0.00000000       0.167
  -0.25000000  0.00000000  0.00000000       0.167
   0.00000000 -0.25000000  0.00000000       0.167
 
 position of ions in fractional coordinates (direct lattice) 
   0.66666667  0.33333333  0.25000000
   0.33333333  0.66666667  0.75000000
   0.66666667  0.33333333  0.63308200
   0.05870556  0.67993433  0.40746258
   0.66666667  0.33333333  0.86691800
   0.33333333  0.66666667  0.13308200
 
 position of ions in cartesian coordinates  (Angst):
   1.59611893 -0.92151969  3.34457350
   1.59611893  0.92151969 10.03372049
   1.59611893 -0.92151969  8.46955712
   1.17895710  1.71742363  5.45115416
   1.59611893 -0.92151969 11.59788387
   1.59611893  0.92151969  1.78041012
 


--------------------------------------------------------------------------------------------------------


 k-point   1 :   0.2500 0.2500 0.0000  plane waves:    3020
 k-point   2 :  -0.2500 0.5000 0.0000  plane waves:    3020
 k-point   3 :   0.5000 0.2500 0.0000  plane waves:    3020
 k-point   4 :  -0.2500 0.2500 0.0000  plane waves:    2992
 k-point   5 :  -0.2500 0.0000 0.0000  plane waves:    2992
 k-point   6 :   0.0000-0.2500 0.0000  plane waves:    2992

 maximum and minimum number of plane-waves per node :       767      745

 maximum number of plane-waves:      3020
 maximum index in each direction: 
   IXMAX=    6   IYMAX=    6   IZMAX=   24
   IXMIN=   -6   IYMIN=   -6   IZMIN=  -24


 parallel 3D FFT for wavefunctions:
    minimum data exchange during FFTs selected (reduces bandwidth)
 parallel 3D FFT for charge:
    minimum data exchange during FFTs selected (reduces bandwidth)


 total amount of memory used by VASP MPI-rank0    38677. kBytes
=======================================================================

   base      :      30000. kBytes
   nonl-proj :       1371. kBytes
   fftplans  :       2330. kBytes
   grid      :       3750. kBytes
   one-center:         31. kBytes
   wavefun   :       1195. kBytes
 
     INWAV:  cpu time    0.0000: real time    0.0001
 Broyden mixing: mesh for mixing (old mesh)
   NGX = 11   NGY = 11   NGZ = 49
  (NGX  = 48   NGY  = 48   NGZ  =196)
  gives a total of   5929 points

 initial charge density was supplied:
 charge density of overlapping atoms calculated
 number of electron      52.0000000 magnetization 
 keeping initial charge density in first step


--------------------------------------------------------------------------------------------------------


 Maximum index for augmentation-charges         2591 (set IRDMAX)


--------------------------------------------------------------------------------------------------------


 First call to EWALD:  gamma=   0.361
 Maximum number of real-space cells 4x 4x 1
 Maximum number of reciprocal cells 2x 2x 7

    FEWALD:  cpu time    0.0019: real time    0.0019


--------------------------------------- Iteration      1(   1)  ---------------------------------------


    POTLOK:  cpu time    0.0563: real time    0.0575
    SETDIJ:  cpu time    0.0055: real time    0.0055
     EDDAV:  cpu time    0.3944: real time    0.3945
       DOS:  cpu time    0.0004: real time    0.0004
    --------------------------------------------
      LOOP:  cpu time    0.4566: real time    0.4578

 eigenvalue-minimisations  :   432
 total energy-change (2. order) : 0.4194298E+03  (-0.2912949E+04)
 number of electron      52.0000000 magnetization 
 augmentation part       52.0000000 magnetization 

 Free energy of the ion-electron system (eV)
  ---------------------------------------------------
  alpha Z        PSCENC =       160.27286088
  Ewald energy   TEWEN  =     -3016.62535620
  -Hartree energ DENC   =     -1737.76316827
  -exchange      EXHF   =         0.00000000
  -V(xc)+E(xc)   XCENC  =       181.82774625
  PAW double counting   =      3865.57804258    -3815.84821480
  entropy T*S    EENTRO =        -0.00000006
  eigenvalues    EBANDS =       -49.85477869
  atomic energy  EATOM  =      4831.84262874
  Solvation  Ediel_sol  =         0.00000000
  ---------------------------------------------------
  free energy    TOTEN  =       419.42976044 eV

  energy without entropy =      419.42976050  energy(sigma->0) =      419.42976047


--------------------------------------------------------------------------------------------------------




--------------------------------------- Iteration      1(   2)  ---------------------------------------


     EDDAV:  cpu time    0.3988: real time    0.4016
       DOS:  cpu time    0.0003: real time    0.0003
    --------------------------------------------
      LOOP:  cpu time    0.3991: real time    0.4020

 eigenvalue-minimisations  :   448
 total energy-change (2. order) :-0.4402028E+03  (-0.4291589E+03)
 number of electron      52.0000000 magnetization 
 augmentation part       52.0000000 magnetization 

 Free energy of the ion-electron system (eV)
  ---------------------------------------------------
  alpha Z        PSCENC =       160.27286088
  Ewald energy   TEWEN  =     -3016.62535620
  -Hartree energ DENC   =     -1737.76316827
  -exchange      EXHF   =         0.00000000
  -V(xc)+E(xc)   XCENC  =       181.82774625
  PAW double counting   =      3865.57804258    -3815.84821480
  entropy T*S    EENTRO =        -0.00000000
  eigenvalues    EBANDS =      -490.05752977
  atomic energy  EATOM  =      4831.84262874
  Solvation  Ediel_sol  =         0.00000000
  ---------------------------------------------------
  free energy    TOTEN  =       -20.77299058 eV

  energy without entropy =      -20.77299058  energy(sigma->0) =      -20.77299058


--------------------------------------------------------------------------------------------------------




--------------------------------------- Iteration      1(   3)  ---------------------------------------


     EDDAV:  cpu time    0.4319: real time    0.4361
       DOS:  cpu time    0.0002: real time    0.0002
    --------------------------------------------
      LOOP:  cpu time    0.4322: real time    0.4363

 eigenvalue-minimisations  :   488
 total energy-change (2. order) :-0.2393361E+02  (-0.2365400E+02)
 number of electron      52.0000000 magnetization 
 augmentation part       52.0000000 magnetization 

 Free energy of the ion-electron system (eV)
  ---------------------------------------------------
  alpha Z        PSCENC =       160.27286088
  Ewald energy   TEWEN  =     -3016.62535620
  -Hartree energ DENC   =     -1737.76316827
  -exchange      EXHF   =         0.00000000
  -V(xc)+E(xc)   XCENC  =       181.82774625
  PAW double counting   =      3865.57804258    -3815.84821480
  entropy T*S    EENTRO =        -0.00000000
  eigenvalues    EBANDS =      -513.99114460
  atomic energy  EATOM  =      4831.84262874
  Solvation  Ediel_sol  =         0.00000000
  ---------------------------------------------------
  free energy    TOTEN  =       -44.70660541 eV

  energy without entropy =      -44.70660541  energy(sigma->0) =      -44.70660541


--------------------------------------------------------------------------------------------------------




--------------------------------------- Iteration      1(   4)  ---------------------------------------


     EDDAV:  cpu time    0.4269: real time    0.4292
       DOS:  cpu time    0.0002: real time    0.0002
    --------------------------------------------
      LOOP:  cpu time    0.4271: real time    0.4294

 eigenvalue-minimisations  :   488
 total energy-change (2. order) :-0.5748894E+00  (-0.5720799E+00)
 number of electron      52.0000000 magnetization 
 augmentation part       52.0000000 magnetization 

 Free energy of the ion-electron system (eV)
  ---------------------------------------------------
  alpha Z        PSCENC =       160.27286088
  Ewald energy   TEWEN  =     -3016.62535620
  -Hartree energ DENC   =     -1737.76316827
  -exchange      EXHF   =         0.00000000
  -V(xc)+E(xc)   XCENC  =       181.82774625
  PAW double counting   =      3865.57804258    -3815.84821480
  entropy T*S    EENTRO =        -0.00000000
  eigenvalues    EBANDS =      -514.56603395
  atomic energy  EATOM  =      4831.84262874
  Solvation  Ediel_sol  =         0.00000000
  ---------------------------------------------------
  free energy    TOTEN  =       -45.28149476 eV

  energy without entropy =      -45.28149476  energy(sigma->0) =      -45.28149476


--------------------------------------------------------------------------------------------------------




--------------------------------------- Iteration      1(   5)  ---------------------------------------


     EDDAV:  cpu time    0.4350: real time    0.4389
       DOS:  cpu time    0.0002: real time    0.0002
    CHARGE:  cpu time    0.0368: real time    0.0368
    MIXING:  cpu time    0.0014: real time    0.0014
    --------------------------------------------
      LOOP:  cpu time    0.4735: real time    0.4774

 eigenvalue-minimisations  :   496
 total energy-change (2. order) :-0.1206463E-01  (-0.1204915E-01)
 number of electron      51.9999991 magnetization 
 augmentation part        0.6326157 magnetization 

 Broyden mixing:
  rms(total) = 0.29638E+01    rms(broyden)= 0.29638E+01
  rms(prec ) = 0.31098E+01
  weight for this iteration     100.00

 Free energy of the ion-electron system (eV)
  ---------------------------------------------------
  alpha Z        PSCENC =       160.27286088
  Ewald energy   TEWEN  =     -3016.62535620
  -Hartree energ DENC   =     -1737.76316827
  -exchange      EXHF   =         0.00000000
  -V(xc)+E(xc)   XCENC  =       181.82774625
  PAW double counting   =      3865.57804258    -3815.84821480
  entropy T*S    EENTRO =        -0.00000000
  eigenvalues    EBANDS =      -514.57809858
  atomic energy  EATOM  =      4831.84262874
  Solvation  Ediel_sol  =         0.00000000
  ---------------------------------------------------
  free energy    TOTEN  =       -45.29355939 eV

  energy without entropy =      -45.29355939  energy(sigma->0) =      -45.29355939


--------------------------------------------------------------------------------------------------------




--------------------------------------- Iteration      1(   6)  ---------------------------------------


    POTLOK:  cpu time    0.0558: real time    0.0599
    SETDIJ:  cpu time    0.0053: real time    0.0053
     EDDAV:  cpu time    0.3977: real time    0.3977
       DOS:  cpu time    0.0002: real time    0.0002
    CHARGE:  cpu time    0.0363: real time    0.0363
    MIXING:  cpu time    0.0015: real time    0.0015
    --------------------------------------------
      LOOP:  cpu time    0.4968: real time    0.5009

 eigenvalue-minimisations  :   448
 total energy-change (2. order) : 0.3814826E+00  (-0.3728416E+01)
 number of electron      51.9999989 magnetization 
 augmentation part        2.3304272 magnetization 

 Broyden mixing:
  rms(total) = 0.15297E+01    rms(broyden)= 0.15297E+01
  rms(prec ) = 0.20081E+01
  weight for this iteration     100.00

 eigenvalues of (default mixing * dielectric matrix)
  average eigenvalue GAMMA=   0.9378
  0.9378

 Free energy of the ion-electron system (eV)
  ---------------------------------------------------
  alpha Z        PSCENC =       160.27286088
  Ewald energy   TEWEN  =     -3016.62535620
  -Hartree energ DENC   =     -1670.57074042
  -exchange      EXHF   =         0.00000000
  -V(xc)+E(xc)   XCENC  =       180.02498633
  PAW double counting   =      4435.76997070    -4393.14562722
  entropy T*S    EENTRO =        -0.00000000
  eigenvalues    EBANDS =      -572.48079964
  atomic energy  EATOM  =      4831.84262874
  Solvation  Ediel_sol  =         0.00000000
  ---------------------------------------------------
  free energy    TOTEN  =       -44.91207683 eV

  energy without entropy =      -44.91207683  energy(sigma->0) =      -44.91207683


--------------------------------------------------------------------------------------------------------




--------------------------------------- Iteration      1(   7)  ---------------------------------------


    POTLOK:  cpu time    0.0552: real time    0.0593
    SETDIJ:  cpu time    0.0052: real time    0.0052
     EDDAV:  cpu time    0.4419: real time    0.4427
       DOS:  cpu time    0.0003: real time    0.0003
    CHARGE:  cpu time    0.0361: real time    0.0361
    MIXING:  cpu time    0.0014: real time    0.0014
    --------------------------------------------
      LOOP:  cpu time    0.5402: real time    0.5451

 eigenvalue-minimisations  :   512
 total energy-change (2. order) : 0.9684081E+00  (-0.4498185E+01)
 number of electron      51.9999990 magnetization 
 augmentation part        1.1212677 magnetization 

 Broyden mixing:
  rms(total) = 0.98479E+00    rms(broyden)= 0.98478E+00
  rms(prec ) = 0.13707E+01
  weight for this iteration     100.00

 eigenvalues of (default mixing * dielectric matrix)
  average eigenvalue GAMMA=   0.9729
  1.4816  0.4643

 Free energy of the ion-electron system (eV)
  ---------------------------------------------------
  alpha Z        PSCENC =       160.27286088
  Ewald energy   TEWEN  =     -3016.62535620
  -Hartree energ DENC   =     -1720.97198716
  -exchange      EXHF   =         0.00000000
  -V(xc)+E(xc)   XCENC  =       180.88863280
  PAW double counting   =      4872.11818495    -4826.70590168
  entropy T*S    EENTRO =        -0.00000000
  eigenvalues    EBANDS =      -524.76273107
  atomic energy  EATOM  =      4831.84262874
  Solvation  Ediel_sol  =         0.00000000
  ---------------------------------------------------
  free energy    TOTEN  =       -43.94366875 eV

  energy without entropy =      -43.94366875  energy(sigma->0) =      -43.94366875


--------------------------------------------------------------------------------------------------------




--------------------------------------- Iteration      1(   8)  ---------------------------------------


    POTLOK:  cpu time    0.0551: real time    0.0592
    SETDIJ:  cpu time    0.0054: real time    0.0054
     EDDAV:  cpu time    0.4225: real time    0.4225
       DOS:  cpu time    0.0006: real time    0.0006
    CHARGE:  cpu time    0.0362: real time    0.0362
    MIXING:  cpu time    0.0014: real time    0.0014
    --------------------------------------------
      LOOP:  cpu time    0.5212: real time    0.5254

 eigenvalue-minimisations  :   488
 total energy-change (2. order) : 0.1786808E+01  (-0.7666143E+00)
 number of electron      51.9999990 magnetization 
 augmentation part        1.4072903 magnetization 

 Broyden mixing:
  rms(total) = 0.45097E+00    rms(broyden)= 0.45097E+00
  rms(prec ) = 0.48296E+00
  weight for this iteration     100.00

 eigenvalues of (default mixing * dielectric matrix)
  average eigenvalue GAMMA=   1.0517
  2.0214  0.6980  0.4356

 Free energy of the ion-electron system (eV)
  ---------------------------------------------------
  alpha Z        PSCENC =       160.27286088
  Ewald energy   TEWEN  =     -3016.62535620
  -Hartree energ DENC   =     -1705.91298595
  -exchange      EXHF   =         0.00000000
  -V(xc)+E(xc)   XCENC  =       180.55721312
  PAW double counting   =      5248.44591006    -5204.80195240
  entropy T*S    EENTRO =        -0.00004405
  eigenvalues    EBANDS =      -535.93513472
  atomic energy  EATOM  =      4831.84262874
  Solvation  Ediel_sol  =         0.00000000
  ---------------------------------------------------
  free energy    TOTEN  =       -42.15686052 eV

  energy without entropy =      -42.15681647  energy(sigma->0) =      -42.15683850


--------------------------------------------------------------------------------------------------------




--------------------------------------- Iteration      1(   9)  ---------------------------------------


    POTLOK:  cpu time    0.0549: real time    0.0588
    SETDIJ:  cpu time    0.0052: real time    0.0052
     EDDAV:  cpu time    0.4322: real time    0.4323
       DOS:  cpu time    0.0007: real time    0.0007
    CHARGE:  cpu time    0.0365: real time    0.0365
    MIXING:  cpu time    0.0015: real time    0.0015
    --------------------------------------------
      LOOP:  cpu time    0.5310: real time    0.5350

 eigenvalue-minimisations  :   488
 total energy-change (2. order) : 0.6946433E-01  (-0.7977985E-01)
 number of electron      51.9999990 magnetization 
 augmentation part        1.5748045 magnetization 

 Broyden mixing:
  rms(total) = 0.13270E+00    rms(broyden)= 0.13270E+00
  rms(prec ) = 0.14712E+00
  weight for this iteration     100.00

 eigenvalues of (default mixing * dielectric matrix)
  average eigenvalue GAMMA=   1.0484
  2.2041  0.9689  0.4828  0.5378

 Free energy of the ion-electron system (eV)
  ---------------------------------------------------
  alpha Z        PSCENC =       160.27286088
  Ewald energy   TEWEN  =     -3016.62535620
  -Hartree energ DENC   =     -1698.22098221
  -exchange      EXHF   =         0.00000000
  -V(xc)+E(xc)   XCENC  =       180.32076450
  PAW double counting   =      5508.16819592    -5465.64003101
  entropy T*S    EENTRO =        -0.00007080
  eigenvalues    EBANDS =      -542.20540601
  atomic energy  EATOM  =      4831.84262874
  Solvation  Ediel_sol  =         0.00000000
  ---------------------------------------------------
  free energy    TOTEN  =       -42.08739619 eV

  energy without entropy =      -42.08732539  energy(sigma->0) =      -42.08736079


--------------------------------------------------------------------------------------------------------




--------------------------------------- Iteration      1(  10)  ---------------------------------------


    POTLOK:  cpu time    0.0563: real time    0.0582
    SETDIJ:  cpu time    0.0054: real time    0.0054
     EDDAV:  cpu time    0.4302: real time    0.4303
       DOS:  cpu time    0.0006: real time    0.0006
    CHARGE:  cpu time    0.0363: real time    0.0363
    MIXING:  cpu time    0.0016: real time    0.0016
    --------------------------------------------
      LOOP:  cpu time    0.5303: real time    0.5323

 eigenvalue-minimisations  :   496
 total energy-change (2. order) : 0.7155901E-02  (-0.5366522E-02)
 number of electron      51.9999990 magnetization 
 augmentation part        1.5780669 magnetization 

 Broyden mixing:
  rms(total) = 0.75823E-01    rms(broyden)= 0.75823E-01
  rms(prec ) = 0.86159E-01
  weight for this iteration     100.00

 eigenvalues of (default mixing * dielectric matrix)
  average eigenvalue GAMMA=   1.0953
  2.0488  1.5753  0.4555  0.7378  0.6593

 Free energy of the ion-electron system (eV)
  ---------------------------------------------------
  alpha Z        PSCENC =       160.27286088
  Ewald energy   TEWEN  =     -3016.62535620
  -Hartree energ DENC   =     -1698.68533047
  -exchange      EXHF   =         0.00000000
  -V(xc)+E(xc)   XCENC  =       180.31943068
  PAW double counting   =      5561.39454168    -5518.97811381
  entropy T*S    EENTRO =        -0.00011103
  eigenvalues    EBANDS =      -541.62079076
  atomic energy  EATOM  =      4831.84262874
  Solvation  Ediel_sol  =         0.00000000
  ---------------------------------------------------
  free energy    TOTEN  =       -42.08024029 eV

  energy without entropy =      -42.08012926  energy(sigma->0) =      -42.08018478


--------------------------------------------------------------------------------------------------------




--------------------------------------- Iteration      1(  11)  ---------------------------------------


    POTLOK:  cpu time    0.0549: real time    0.0586
    SETDIJ:  cpu time    0.0054: real time    0.0054
     EDDAV:  cpu time    0.4101: real time    0.4102
       DOS:  cpu time    0.0006: real time    0.0006
    CHARGE:  cpu time    0.0360: real time    0.0360
    MIXING:  cpu time    0.0015: real time    0.0015
    --------------------------------------------
      LOOP:  cpu time    0.5086: real time    0.5122

 eigenvalue-minimisations  :   464
 total energy-change (2. order) : 0.2574389E-02  (-0.2477068E-02)
 number of electron      51.9999990 magnetization 
 augmentation part        1.5485264 magnetization 

 Broyden mixing:
  rms(total) = 0.29702E-01    rms(broyden)= 0.29702E-01
  rms(prec ) = 0.31893E-01
  weight for this iteration     100.00

 eigenvalues of (default mixing * dielectric matrix)
  average eigenvalue GAMMA=   1.1542
  2.1386  2.1386  0.4566  0.8353  0.6779  0.6779

 Free energy of the ion-electron system (eV)
  ---------------------------------------------------
  alpha Z        PSCENC =       160.27286088
  Ewald energy   TEWEN  =     -3016.62535620
  -Hartree energ DENC   =     -1699.90678556
  -exchange      EXHF   =         0.00000000
  -V(xc)+E(xc)   XCENC  =       180.35590518
  PAW double counting   =      5553.84380962    -5511.33894316
  entropy T*S    EENTRO =        -0.00018741
  eigenvalues    EBANDS =      -540.52159799
  atomic energy  EATOM  =      4831.84262874
  Solvation  Ediel_sol  =         0.00000000
  ---------------------------------------------------
  free energy    TOTEN  =       -42.07766590 eV

  energy without entropy =      -42.07747849  energy(sigma->0) =      -42.07757220


--------------------------------------------------------------------------------------------------------




--------------------------------------- Iteration      1(  12)  ---------------------------------------


    POTLOK:  cpu time    0.0549: real time    0.0589
    SETDIJ:  cpu time    0.0054: real time    0.0054
     EDDAV:  cpu time    0.4261: real time    0.4262
       DOS:  cpu time    0.0006: real time    0.0006
    CHARGE:  cpu time    0.0360: real time    0.0360
    MIXING:  cpu time    0.0016: real time    0.0016
    --------------------------------------------
      LOOP:  cpu time    0.5245: real time    0.5287

 eigenvalue-minimisations  :   488
 total energy-change (2. order) :-0.2697847E-03  (-0.4083396E-03)
 number of electron      51.9999990 magnetization 
 augmentation part        1.5552960 magnetization 

 Broyden mixing:
  rms(total) = 0.16366E-01    rms(broyden)= 0.16366E-01
  rms(prec ) = 0.19797E-01
  weight for this iteration     100.00

 eigenvalues of (default mixing * dielectric matrix)
  average eigenvalue GAMMA=   1.1770
  2.0769  2.0769  1.2608  0.4552  0.9701  0.6410  0.7578

 Free energy of the ion-electron system (eV)
  ---------------------------------------------------
  alpha Z        PSCENC =       160.27286088
  Ewald energy   TEWEN  =     -3016.62535620
  -Hartree energ DENC   =     -1699.94268771
  -exchange      EXHF   =         0.00000000
  -V(xc)+E(xc)   XCENC  =       180.36329887
  PAW double counting   =      5559.54450955    -5517.05842271
  entropy T*S    EENTRO =        -0.00017130
  eigenvalues    EBANDS =      -540.47459581
  atomic energy  EATOM  =      4831.84262874
  Solvation  Ediel_sol  =         0.00000000
  ---------------------------------------------------
  free energy    TOTEN  =       -42.07793569 eV

  energy without entropy =      -42.07776439  energy(sigma->0) =      -42.07785004


--------------------------------------------------------------------------------------------------------




--------------------------------------- Iteration      1(  13)  ---------------------------------------


    POTLOK:  cpu time    0.0548: real time    0.0585
    SETDIJ:  cpu time    0.0053: real time    0.0053
     EDDAV:  cpu time    0.4478: real time    0.4479
       DOS:  cpu time    0.0006: real time    0.0006
    CHARGE:  cpu time    0.0360: real time    0.0360
    MIXING:  cpu time    0.0016: real time    0.0016
    --------------------------------------------
      LOOP:  cpu time    0.5462: real time    0.5499

 eigenvalue-minimisations  :   520
 total energy-change (2. order) :-0.1965071E-04  (-0.3556976E-03)
 number of electron      51.9999990 magnetization 
 augmentation part        1.5473849 magnetization 

 Broyden mixing:
  rms(total) = 0.10515E-01    rms(broyden)= 0.10515E-01
  rms(prec ) = 0.15195E-01
  weight for this iteration     100.00

 eigenvalues of (default mixing * dielectric matrix)
  average eigenvalue GAMMA=   1.1423
  2.2224  2.2224  1.1585  1.1585  0.7510  0.4543  0.5858  0.5858

 Free energy of the ion-electron system (eV)
  ---------------------------------------------------
  alpha Z        PSCENC =       160.27286088
  Ewald energy   TEWEN  =     -3016.62535620
  -Hartree energ DENC   =     -1700.23823543
  -exchange      EXHF   =         0.00000000
  -V(xc)+E(xc)   XCENC  =       180.37153580
  PAW double counting   =      5555.63663740    -5513.12699348
  entropy T*S    EENTRO =        -0.00018938
  eigenvalues    EBANDS =      -540.21084368
  atomic energy  EATOM  =      4831.84262874
  Solvation  Ediel_sol  =         0.00000000
  ---------------------------------------------------
  free energy    TOTEN  =       -42.07795534 eV

  energy without entropy =      -42.07776596  energy(sigma->0) =      -42.07786065


--------------------------------------------------------------------------------------------------------




--------------------------------------- Iteration      1(  14)  ---------------------------------------


    POTLOK:  cpu time    0.0550: real time    0.0585
    SETDIJ:  cpu time    0.0054: real time    0.0054
     EDDAV:  cpu time    0.4082: real time    0.4082
       DOS:  cpu time    0.0007: real time    0.0006
    CHARGE:  cpu time    0.0360: real time    0.0360
    MIXING:  cpu time    0.0017: real time    0.0017
    --------------------------------------------
      LOOP:  cpu time    0.5069: real time    0.5104

 eigenvalue-minimisations  :   464
 total energy-change (2. order) : 0.1032124E-03  (-0.6771912E-04)
 number of electron      51.9999990 magnetization 
 augmentation part        1.5507116 magnetization 

 Broyden mixing:
  rms(total) = 0.50471E-02    rms(broyden)= 0.50471E-02
  rms(prec ) = 0.56704E-02
  weight for this iteration     100.00

 eigenvalues of (default mixing * dielectric matrix)
  average eigenvalue GAMMA=   1.1955
  2.4299  2.2057  1.4158  1.4158  0.4545  0.8031  0.6981  0.6981  0.6389

 Free energy of the ion-electron system (eV)
  ---------------------------------------------------
  alpha Z        PSCENC =       160.27286088
  Ewald energy   TEWEN  =     -3016.62535620
  -Hartree energ DENC   =     -1700.23561601
  -exchange      EXHF   =         0.00000000
  -V(xc)+E(xc)   XCENC  =       180.37300974
  PAW double counting   =      5556.10017908    -5513.59588609
  entropy T*S    EENTRO =        -0.00017926
  eigenvalues    EBANDS =      -540.20949302
  atomic energy  EATOM  =      4831.84262874
  Solvation  Ediel_sol  =         0.00000000
  ---------------------------------------------------
  free energy    TOTEN  =       -42.07785213 eV

  energy without entropy =      -42.07767287  energy(sigma->0) =      -42.07776250


--------------------------------------------------------------------------------------------------------




--------------------------------------- Iteration      1(  15)  ---------------------------------------


    POTLOK:  cpu time    0.0572: real time    0.0609
    SETDIJ:  cpu time    0.0054: real time    0.0054
     EDDAV:  cpu time    0.4351: real time    0.4351
       DOS:  cpu time    0.0006: real time    0.0006
    CHARGE:  cpu time    0.0360: real time    0.0360
    MIXING:  cpu time    0.0017: real time    0.0017
    --------------------------------------------
      LOOP:  cpu time    0.5360: real time    0.5397

 eigenvalue-minimisations  :   504
 total energy-change (2. order) :-0.1308915E-04  (-0.7134570E-05)
 number of electron      51.9999990 magnetization 
 augmentation part        1.5515946 magnetization 

 Broyden mixing:
  rms(total) = 0.15648E-02    rms(broyden)= 0.15648E-02
  rms(prec ) = 0.17280E-02
  weight for this iteration     100.00

 eigenvalues of (default mixing * dielectric matrix)
  average eigenvalue GAMMA=   1.2204
  2.4427  2.4427  1.4884  1.4884  0.9469  0.9469  0.4544  0.6846  0.6546  0.6546

 Free energy of the ion-electron system (eV)
  ---------------------------------------------------
  alpha Z        PSCENC =       160.27286088
  Ewald energy   TEWEN  =     -3016.62535620
  -Hartree energ DENC   =     -1700.25799052
  -exchange      EXHF   =         0.00000000
  -V(xc)+E(xc)   XCENC  =       180.37461402
  PAW double counting   =      5556.03605775    -5513.53163279
  entropy T*S    EENTRO =        -0.00017942
  eigenvalues    EBANDS =      -540.18886768
  atomic energy  EATOM  =      4831.84262874
  Solvation  Ediel_sol  =         0.00000000
  ---------------------------------------------------
  free energy    TOTEN  =       -42.07786522 eV

  energy without entropy =      -42.07768580  energy(sigma->0) =      -42.07777551


--------------------------------------------------------------------------------------------------------




--------------------------------------- Iteration      1(  16)  ---------------------------------------


    POTLOK:  cpu time    0.0549: real time    0.0582
    SETDIJ:  cpu time    0.0054: real time    0.0054
     EDDAV:  cpu time    0.3727: real time    0.3727
       DOS:  cpu time    0.0007: real time    0.0006
    CHARGE:  cpu time    0.0361: real time    0.0361
    MIXING:  cpu time    0.0018: real time    0.0018
    --------------------------------------------
      LOOP:  cpu time    0.4715: real time    0.4748

 eigenvalue-minimisations  :   408
 total energy-change (2. order) :-0.5311330E-05  (-0.1628903E-05)
 number of electron      51.9999990 magnetization 
 augmentation part        1.5521017 magnetization 

 Broyden mixing:
  rms(total) = 0.10669E-02    rms(broyden)= 0.10669E-02
  rms(prec ) = 0.11576E-02
  weight for this iteration     100.00

 eigenvalues of (default mixing * dielectric matrix)
  average eigenvalue GAMMA=   1.2479
  2.6561  2.2738  1.7687  1.7687  1.1197  0.4544  0.7948  0.7948  0.7776  0.6594
  0.6594

 Free energy of the ion-electron system (eV)
  ---------------------------------------------------
  alpha Z        PSCENC =       160.27286088
  Ewald energy   TEWEN  =     -3016.62535620
  -Hartree energ DENC   =     -1700.25980024
  -exchange      EXHF   =         0.00000000
  -V(xc)+E(xc)   XCENC  =       180.37535249
  PAW double counting   =      5555.61732180    -5513.11181212
  entropy T*S    EENTRO =        -0.00017793
  eigenvalues    EBANDS =      -540.18888796
  atomic energy  EATOM  =      4831.84262874
  Solvation  Ediel_sol  =         0.00000000
  ---------------------------------------------------
  free energy    TOTEN  =       -42.07787053 eV

  energy without entropy =      -42.07769260  energy(sigma->0) =      -42.07778156


--------------------------------------------------------------------------------------------------------




--------------------------------------- Iteration      1(  17)  ---------------------------------------


    POTLOK:  cpu time    0.0568: real time    0.0602
    SETDIJ:  cpu time    0.0053: real time    0.0053
     EDDAV:  cpu time    0.3597: real time    0.3598
       DOS:  cpu time    0.0006: real time    0.0006
    --------------------------------------------
      LOOP:  cpu time    0.4224: real time    0.4259

 eigenvalue-minimisations  :   376
 total energy-change (2. order) :-0.9090290E-06  (-0.2836672E-06)
 number of electron      51.9999990 magnetization 
 augmentation part        1.5521017 magnetization 

 Free energy of the ion-electron system (eV)
  ---------------------------------------------------
  alpha Z        PSCENC =       160.27286088
  Ewald energy   TEWEN  =     -3016.62535620
  -Hartree energ DENC   =     -1700.26623984
  -exchange      EXHF   =         0.00000000
  -V(xc)+E(xc)   XCENC  =       180.37565997
  PAW double counting   =      5555.83446089    -5513.32843174
  entropy T*S    EENTRO =        -0.00017869
  eigenvalues    EBANDS =      -540.18327546
  atomic energy  EATOM  =      4831.84262874
  Solvation  Ediel_sol  =         0.00000000
  ---------------------------------------------------
  free energy    TOTEN  =       -42.07787144 eV

  energy without entropy =      -42.07769275  energy(sigma->0) =      -42.07778209


--------------------------------------------------------------------------------------------------------




 average (electrostatic) potential at core
  the test charge radii are     1.0818  0.9698
  (the norm of the test charge is              1.0000)
       1 -75.8940       2 -75.9665       3 -85.7024       4 -85.5425       5 -85.6771
       6 -85.7162
 
 
 
 E-fermi :   6.2387     XC(G=0): -10.3066     alpha+bet :-12.2268

 Fermi energy:         6.2387380227

 k-point     1 :       0.2500    0.2500    0.0000
  band No.  band energies     occupation 
      1     -55.1756      2.00000
      2     -55.0788      2.00000
      3     -29.4128      2.00000
      4     -29.3261      2.00000
      5     -29.3256      2.00000
      6     -29.2716      2.00000
      7     -29.2409      2.00000
      8     -29.0185      2.00000
      9      -6.6187      2.00000
     10      -6.4482      2.00000
     11      -6.3822      2.00000
     12      -5.5701      2.00000
     13       0.5491      2.00000
     14       0.7553      2.00000
     15       0.8965      2.00000
     16       1.7513      2.00000
     17       2.0156      2.00000
     18       2.1849      2.00000
     19       2.5674      2.00000
     20       2.7097      2.00000
     21       2.7939      2.00000
     22       3.5523      2.00000
     23       3.7052      2.00000
     24       4.0550      2.00000
     25       5.1630      2.00000
     26       5.7397      2.00000
     27       6.7231      0.00000
     28       7.7694      0.00000
     29       8.0922      0.00000
     30       8.4671      0.00000
     31       8.6089      0.00000
     32       8.7562      0.00000

 k-point     2 :      -0.2500    0.5000    0.0000
  band No.  band energies     occupation 
      1     -55.1756      2.00000
      2     -55.0790      2.00000
      3     -29.4120      2.00000
      4     -29.3261      2.00000
      5     -29.3224      2.00000
      6     -29.2724      2.00000
      7     -29.1623      2.00000
      8     -29.0993      2.00000
      9      -6.6236      2.00000
     10      -6.4390      2.00000
     11      -6.3876      2.00000
     12      -5.5635      2.00000
     13       0.5586      2.00000
     14       0.7554      2.00000
     15       0.8853      2.00000
     16       1.8185      2.00000
     17       1.9793      2.00000
     18       2.2851      2.00000
     19       2.4720      2.00000
     20       2.7180      2.00000
     21       2.8607      2.00000
     22       3.3455      2.00000
     23       3.9276      2.00000
     24       4.0565      2.00000
     25       5.1617      2.00000
     26       5.5863      2.00000
     27       6.7510      0.00000
     28       7.7772      0.00000
     29       8.0332      0.00000
     30       8.4706      0.00000
     31       8.7041      0.00000
     32       8.7445      0.00000

 k-point     3 :       0.5000    0.2500    0.0000
  band No.  band energies     occupation 
      1     -55.1756      2.00000
      2     -55.0789      2.00000
      3     -29.4133      2.00000
      4     -29.3260      2.00000
      5     -29.3095      2.00000
      6     -29.2710      2.00000
      7     -29.2242      2.00000
      8     -29.0502      2.00000
      9      -6.6235      2.00000
     10      -6.4423      2.00000
     11      -6.3893      2.00000
     12      -5.5545      2.00000
     13       0.5569      2.00000
     14       0.7610      2.00000
     15       0.9435      2.00000
     16       1.8175      2.00000
     17       1.9147      2.00000
     18       2.1962      2.00000
     19       2.4987      2.00000
     20       2.6996      2.00000
     21       2.8145      2.00000
     22       3.4214      2.00000
     23       3.8437      2.00000
     24       4.1045      2.00000
     25       5.1589      2.00000
     26       5.7847      2.00000
     27       6.6162      0.00000
     28       7.7915      0.00000
     29       8.1703      0.00000
     30       8.4873      0.00000
     31       8.6670      0.00000
     32       8.8023      0.00000

 k-point     4 :      -0.2500    0.2500    0.0000
  band No.  band energies     occupation 
      1     -55.1935      2.00000
      2     -55.0957      2.00000
      3     -29.3619      2.00000
      4     -29.3336      2.00000
      5     -29.3020      2.00000
      6     -29.1623      2.00000
      7     -29.0667      2.00000
      8     -29.0107      2.00000
      9      -7.6274      2.00000
     10      -7.2111      2.00000
     11      -6.8520      2.00000
     12      -6.3098      2.00000
     13       0.5690      2.00000
     14       1.3409      2.00000
     15       1.7590      2.00000
     16       1.9734      2.00000
     17       2.1803      2.00000
     18       3.1644      2.00000
     19       3.2642      2.00000
     20       3.4881      2.00000
     21       3.8518      2.00000
     22       3.8791      2.00000
     23       4.5152      2.00000
     24       4.8376      2.00000
     25       5.0059      2.00000
     26       6.0124      2.00000
     27       6.3383      0.00487
     28       7.2324      0.00000
     29       7.8756      0.00000
     30       8.0003      0.00000
     31       8.4974      0.00000
     32       8.8083      0.00000

 k-point     5 :      -0.2500    0.0000    0.0000
  band No.  band energies     occupation 
      1     -55.1935      2.00000
      2     -55.0955      2.00000
      3     -29.3619      2.00000
      4     -29.3298      2.00000
      5     -29.3027      2.00000
      6     -29.1616      2.00000
      7     -29.1574      2.00000
      8     -28.9249      2.00000
      9      -7.6243      2.00000
     10      -7.1939      2.00000
     11      -6.8469      2.00000
     12      -6.3414      2.00000
     13       0.5768      2.00000
     14       1.4304      2.00000
     15       1.7789      2.00000
     16       1.9403      2.00000
     17       2.1820      2.00000
     18       2.9349      2.00000
     19       3.1657      2.00000
     20       3.4893      2.00000
     21       3.7456      2.00000
     22       3.8785      2.00000
     23       4.3934      2.00000
     24       4.9465      2.00000
     25       5.1164      2.00000
     26       6.0183      2.00000
     27       6.8574      0.00000
     28       7.2045      0.00000
     29       7.9657      0.00000
     30       7.9975      0.00000
     31       8.4520      0.00000
     32       8.8715      0.00000

 k-point     6 :       0.0000   -0.2500    0.0000
  band No.  band energies     occupation 
      1     -55.1935      2.00000
      2     -55.0956      2.00000
      3     -29.3619      2.00000
      4     -29.3347      2.00000
      5     -29.3014      2.00000
      6     -29.1629      2.00000
      7     -29.1272      2.00000
      8     -28.9502      2.00000
      9      -7.6245      2.00000
     10      -7.1890      2.00000
     11      -6.8477      2.00000
     12      -6.3486      2.00000
     13       0.5838      2.00000
     14       1.4085      2.00000
     15       1.6947      2.00000
     16       1.9741      2.00000
     17       2.1594      2.00000
     18       3.0283      2.00000
     19       3.1654      2.00000
     20       3.5714      2.00000
     21       3.8356      2.00000
     22       3.8890      2.00000
     23       4.3653      2.00000
     24       4.9367      2.00000
     25       5.0825      2.00000
     26       6.1392      1.99513
     27       6.6474      0.00000
     28       7.0388      0.00000
     29       7.9599      0.00000
     30       7.9966      0.00000
     31       8.4701      0.00000
     32       8.9765      0.00000


--------------------------------------------------------------------------------------------------------


 soft charge-density along one line, spin component           1
         0         1         2         3         4         5         6         7         8         9
 total charge-density along one line
 
 pseudopotential strength for first ion, spin component:           1
 -5.072  11.436   0.002  -0.007   0.006  -0.004  -0.003  -0.002
 11.436   3.260  -0.003  -0.003  -0.002   0.001   0.003  -0.001
  0.002  -0.003 -18.120  -0.015   0.005   8.941   0.016  -0.005
 -0.007  -0.003  -0.015 -18.175  -0.006   0.016   9.004   0.008
  0.006  -0.002   0.005  -0.006 -18.142  -0.005   0.008   8.966
 -0.004   0.001   8.941   0.016  -0.005   5.733  -0.009   0.003
 -0.003   0.003   0.016   9.004   0.008  -0.009   5.698  -0.005
 -0.002  -0.001  -0.005   0.008   8.966   0.003  -0.005   5.719
  0.006  -0.003   0.005   0.001   0.006  -0.002  -0.000  -0.004
 -0.019   0.010   0.001   0.003   0.001  -0.003  -0.002  -0.000
 -0.031   0.017  -0.001  -0.001  -0.005   0.001  -0.002   0.002
 -0.007   0.005   0.001  -0.001   0.000  -0.000   0.001  -0.003
 -0.013   0.008  -0.000  -0.000   0.003   0.001   0.000  -0.001
  0.006  -0.003   0.005   0.001   0.006  -0.002  -0.000  -0.004
 -0.019   0.010   0.001   0.004   0.001  -0.003  -0.002  -0.000
 -0.031   0.018  -0.001  -0.002  -0.005   0.001  -0.002   0.002
 -0.007   0.005   0.001  -0.001   0.000  -0.000   0.000  -0.003
 -0.014   0.008  -0.000  -0.000   0.003   0.001  -0.000  -0.001
 total augmentation occupancy for first ion, spin component:           1
  1.995  -0.042   0.000   0.001  -0.000   0.000   0.001  -0.001  -0.009   0.032   0.053   0.007   0.023   0.008  -0.029  -0.048
 -0.042   1.149   0.001   0.013  -0.008  -0.004  -0.051   0.026   0.035   0.017  -0.334  -0.239  -0.198  -0.040  -0.031   0.351
  0.000   0.001   1.997   0.000   0.000  -0.040   0.000   0.000  -0.001   0.009   0.005  -0.002   0.003   0.000   0.003  -0.004
  0.001   0.013   0.000   1.998   0.000   0.000  -0.048  -0.003   0.002  -0.004   0.004  -0.020   0.000   0.002   0.006  -0.005
 -0.000  -0.008   0.000   0.000   1.997   0.000  -0.003  -0.043  -0.008  -0.001  -0.005   0.010  -0.003   0.010   0.001   0.000
  0.000  -0.004  -0.040   0.000   0.000   0.072  -0.001  -0.001  -0.024   0.217   0.002   0.012   0.132   0.019  -0.243  -0.006
  0.001  -0.051   0.000  -0.048  -0.003  -0.001   0.102   0.013  -0.003   0.015  -0.058  -0.076  -0.053  -0.011  -0.023   0.053
 -0.001   0.026   0.000  -0.003  -0.043  -0.001   0.013   0.082   0.136   0.008  -0.040   0.115  -0.023  -0.136  -0.008   0.055
 -0.009   0.035  -0.001   0.002  -0.008  -0.024  -0.003   0.136   1.919  -0.041   0.008   0.590  -0.047  -1.696  -0.073   0.022
  0.032   0.017   0.009  -0.004  -0.001   0.217   0.015   0.008  -0.041   2.380  -0.076   0.027   0.664  -0.073  -2.700   0.083
  0.053  -0.334   0.005   0.004  -0.005   0.002  -0.058  -0.040   0.008  -0.076   1.586   0.488   0.219   0.024   0.082  -1.783
  0.007  -0.239  -0.002  -0.020   0.010   0.012  -0.076   0.115   0.590   0.027   0.488   3.031   0.152  -0.861   0.051  -0.657
  0.023  -0.198   0.003   0.000  -0.003   0.132  -0.053  -0.023  -0.047   0.664   0.219   0.152   1.841   0.014  -0.904  -0.176
  0.008  -0.040   0.000   0.002   0.010   0.019  -0.011  -0.136  -1.696  -0.073   0.024  -0.861   0.014   2.468   0.141  -0.046
 -0.029  -0.031   0.003   0.006   0.001  -0.243  -0.023  -0.008  -0.073  -2.700   0.082   0.051  -0.904   0.141   3.703  -0.104
 -0.048   0.351  -0.004  -0.005   0.000  -0.006   0.053   0.055   0.022   0.083  -1.783  -0.657  -0.176  -0.046  -0.104   2.749
 -0.006   0.291   0.002   0.007  -0.003  -0.010   0.115  -0.131  -0.868   0.051  -0.658  -3.694  -0.235   1.089  -0.090   0.815
 -0.021   0.175  -0.002  -0.004   0.001  -0.125   0.059   0.024   0.014  -0.904  -0.171  -0.235  -1.863  -0.011   1.162   0.181


------------------------ aborting loop because EDIFF is reached ----------------------------------------


    CHARGE:  cpu time    0.0364: real time    0.0364
    FORLOC:  cpu time    0.0047: real time    0.0047
    FORNL :  cpu time    0.0736: real time    0.0736
    STRESS:  cpu time    0.1515: real time    0.1516
    FORCOR:  cpu time    0.0593: real time    0.0593
    FORHAR:  cpu time    0.0146: real time    0.0146
    MIXING:  cpu time    0.0019: real time    0.0019
    OFIELD:  cpu time    0.0000: real time    0.0000

 ---------------------------------------------------------------------------------------------

         DFTD3 V3.0 Rev 1        
 IVDW         = 12
 DF pbe       
 parameters
 VDW_S6       =    1.0000
 VDW_S8       =    0.7875
 VDW_A1       =    0.4289
 VDW_A2       =    4.4407
 k1-k3        =   16.0000    1.3333   -4.0000
 VDW_RADIUS   =   50.2022 A
 VDW_CNRADIUS =   21.1671 A
 Edisp (eV)   -2.30982

 E6    (eV) :    -1.3758
 E8    (eV) :    -0.9340
 % E8        : 40.44
    FORVDW:  cpu time    0.0379: real time    0.0379

  FORCE on cell =-STRESS in cart. coord.  units (eV):
  Direction    XX          YY          ZZ          XY          YZ          ZX
  --------------------------------------------------------------------------------------
  Alpha Z   160.27286   160.27286   160.27286
  Ewald    -234.69127  -297.79690 -2484.14012    -4.22855    -4.21844    33.96995
  Hartree  1205.25797  1180.08191  -685.06221    -1.43089    -2.63595    11.87363
  E(xc)    -218.10027  -218.20921  -218.33697    -0.02720    -0.01569     0.05043
  Local   -1975.94011 -1892.10865  2163.34622     3.17084    10.75483   -46.17482
  n-local   236.38934   235.53089   245.32722     0.57143    -0.85915     2.48201
  augment    -1.47331    -0.83602    -4.46392    -0.08583    -0.11888    -0.65226
  Kinetic   825.50129   831.96679   815.12012     2.92377    -3.57363    -0.67280
  Fock        0.00000     0.00000     0.00000     0.00000     0.00000     0.00000
  vdW        -2.36886    -2.36870    -2.27867    -0.00085     0.00465    -0.01675
  -------------------------------------------------------------------------------------
  Total      -5.15237    -3.46704   -10.21546     0.89271    -0.66225     0.85937
  in kB     -69.91915   -47.04866  -138.62663    12.11438    -8.98692    11.66191
  external pressure =      -85.20 kB  Pullay stress =        0.00 kB


 VOLUME and BASIS-vectors are now :
 -----------------------------------------------------------------------------
  energy-cutoff  :      500.00
  volume of cell :      118.07
      direct lattice vectors                 reciprocal lattice vectors
     1.596118927 -2.764559076  0.000000000     0.313259865 -0.180860668  0.000000000
     1.596118927  2.764559076  0.000000000     0.313259865  0.180860668  0.000000000
     0.000000000  0.000000000 13.378293991     0.000000000  0.000000000  0.074747946

  length of vectors
     3.192237854  3.192237854 13.378293991     0.361721335  0.361721335  0.074747946


 FORCES acting on ions
    electron-ion (+dipol)            ewald-force                    non-local-force                 convergence-correction
 -----------------------------------------------------------------------------------------------
   0.191E+02 -.223E+01 -.119E+02   -.177E+02 0.250E+01 0.106E+02   -.148E+01 0.413E+00 0.241E+01   0.839E-04 -.769E-04 -.185E-01
   -.545E-01 0.780E-01 -.698E+02   0.405E-01 -.779E-01 0.698E+02   0.404E-02 -.680E-02 -.547E-01   0.245E-04 0.169E-05 0.108E-01
   0.931E+00 -.110E+00 0.385E+03   -.968E+00 0.141E+00 -.389E+03   0.820E-02 -.127E-01 0.496E+01   -.503E-04 0.143E-04 0.467E-02
   -.183E+02 0.209E+01 -.245E+03   0.185E+02 -.230E+01 0.247E+03   0.189E+00 -.309E+00 -.454E+01   0.128E-04 -.145E-03 -.452E-02
   -.199E-01 0.288E-01 -.444E+03   -.857E-03 0.126E-03 0.449E+03   0.110E-01 -.145E-01 -.506E+01   0.195E-04 0.293E-04 0.711E-02
   0.271E-01 0.390E+00 0.384E+03   0.138E+00 -.265E+00 -.387E+03   -.418E+00 -.319E+00 0.476E+01   0.653E-05 -.345E-04 -.772E-02
 -----------------------------------------------------------------------------------------------
   0.169E+01 0.248E+00 -.247E+01   -.345E-13 0.638E-14 0.568E-13   -.169E+01 -.248E+00 0.248E+01   0.970E-04 -.211E-03 -.817E-02
 
 
 POSITION                                       TOTAL-FORCE (eV/Angst)
 -----------------------------------------------------------------------------------
      1.59612     -0.92152      3.34457        -0.038626      0.676406      1.094980
      1.59612      0.92152     10.03372        -0.009882     -0.006779      0.005108
      1.59612     -0.92152      8.46956        -0.030717      0.018728      0.390724
      1.17896      1.71742      5.45115         0.341477     -0.508513     -2.620047
      1.59612     -0.92152     11.59788        -0.009660      0.014447     -0.325392
      1.59612      0.92152      1.78041        -0.252592     -0.194289      1.454626
 -----------------------------------------------------------------------------------
    total drift:                                0.000017      0.000098      0.000194


--------------------------------------------------------------------------------------------------------



  FREE ENERGIE OF THE ION-ELECTRON SYSTEM (eV)
  ---------------------------------------------------
  free  energy   TOTEN  =       -44.38768845 eV

  energy  without entropy=      -44.38750977  energy(sigma->0) =      -44.38759911
 


--------------------------------------------------------------------------------------------------------


    POTLOK:  cpu time    0.0603: real time    0.0603


--------------------------------------------------------------------------------------------------------


 stress matrix after NEB project (eV)
     -5.15237      0.89271      0.85937
      0.89271     -3.46704     -0.66225
      0.85937     -0.66225    -10.21546
  FORCES: max atom, RMS     2.690695    1.376931
  FORCE total and by dimension    3.372779    2.620047
  Stress total and by dimension   12.119035   10.215460
 writing wavefunctions
     LOOP+:  cpu time    9.5778: real time    9.6479
    4ORBIT:  cpu time    0.0000: real time    0.0000

 total amount of memory used by VASP MPI-rank0    38677. kBytes
=======================================================================

   base      :      30000. kBytes
   nonl-proj :       1371. kBytes
   fftplans  :       2330. kBytes
   grid      :       3750. kBytes
   one-center:         31. kBytes
   wavefun   :       1195. kBytes
 
  
  
 General timing and accounting informations for this job:
 ========================================================
  
                  Total CPU time used (sec):       11.191
                            User time (sec):       10.321
                          System time (sec):        0.870
                         Elapsed time (sec):       11.759
  
                   Maximum memory used (kb):      136192.
                   Average memory used (kb):          N/A
  
                          Minor page faults:        27731
                          Major page faults:            0
                 Voluntary context switches:          943
