 vasp.6.2.0 18Jan21 (build Jul 31 2023 14:19:35) complex                        
  
 executed on             LinuxIFC date 2025.09.17  14:19:37
 running on    8 total cores
 distrk:  each k-point on    8 cores,    1 groups
 distr:  one band on NCORE=   4 cores,    2 groups


--------------------------------------------------------------------------------------------------------


 INCAR:
   SYSTEM = MoS2_SinglePoint_vdW_Coulomb
   PREC = Accurate
   ENCUT = 500
   GGA = PE
   ALGO = Normal
   NELM = 100
   NELMIN = 5
   EDIFF = 1E-6
   ISMEAR = 0
   SIGMA = 0.05
   IBRION = -1
   NSW = 0
   LREAL = .FALSE.
   LCHARG = .TRUE.
   LWAVE = .TRUE.
   NWRITE = 1
   NCORE = 4

 POTCAR:    PAW_PBE Mo_sv 02Feb2006               
 POTCAR:    PAW_PBE S 06Sep2000                   
 POTCAR:    PAW_PBE Mo_sv 02Feb2006               
  local pseudopotential read in
  partial core-charges read in
  partial kinetic energy density read in
  atomic valenz-charges read in
  non local Contribution for L=           0  read in
    real space projection operators read in
  non local Contribution for L=           0  read in
    real space projection operators read in
  non local Contribution for L=           1  read in
    real space projection operators read in
  non local Contribution for L=           1  read in
    real space projection operators read in
  non local Contribution for L=           2  read in
    real space projection operators read in
  non local Contribution for L=           2  read in
    real space projection operators read in
    PAW grid and wavefunctions read in
 
   number of l-projection  operators is LMAX  =           6
   number of lm-projection operators is LMMAX =          18
 
 POTCAR:    PAW_PBE S 06Sep2000                   
  local pseudopotential read in
  partial core-charges read in
  partial kinetic energy density read in
  atomic valenz-charges read in
  non local Contribution for L=           0  read in
    real space projection operators read in
  non local Contribution for L=           0  read in
    real space projection operators read in
  non local Contribution for L=           1  read in
    real space projection operators read in
  non local Contribution for L=           1  read in
    real space projection operators read in
    PAW grid and wavefunctions read in
 
   number of l-projection  operators is LMAX  =           4
   number of lm-projection operators is LMMAX =           8
 
  PAW_PBE Mo_sv 02Feb2006               :
 energy of atom  1       EATOM=-1862.2866
 kinetic energy error for atom=    0.0074 (will be added to EATOM!!)
  PAW_PBE S 06Sep2000                   :
 energy of atom  2       EATOM= -276.8230
 kinetic energy error for atom=    0.0020 (will be added to EATOM!!)
 
 
 POSCAR: Mo S
  positions in direct lattice
  No initial velocities read in
 exchange correlation table for  LEXCH =        8
   RHO(1)=    0.500       N(1)  =     2000
   RHO(2)=  100.500       N(2)  =     4000

 VTST: version 4.0, (05/15/20)

 CHAIN: initializing optimizer
 
 OPT: Using VASP Dynamics algorithm
 CHAIN: Read ICHAIN            0
 
 POSCAR: Mo S
  positions in direct lattice
  No initial velocities read in
 


--------------------------------------------------------------------------------------------------------


 ion  position               nearest neighbor table
   1  0.667  0.333  0.250-   4 2.42   6 2.42   4 2.42   6 2.42   4 2.42   6 2.42
   2  0.333  0.667  0.750-   5 2.42   5 2.42   5 2.42   3 2.52
   3  0.135  0.865  0.581-   2 2.52
   4  0.333  0.667  0.367-   1 2.42   1 2.42   1 2.42
   5  0.667  0.333  0.867-   2 2.42   2 2.42   2 2.42
   6  0.333  0.667  0.133-   1 2.42   1 2.42   1 2.42
 
  LATTYP: Found a hexagonal cell.
 ALAT       =     3.1922378540
 C/A-ratio  =     4.1908825730
  
  Lattice vectors:
  
 A1 = (   1.5961189270,  -2.7645590765,   0.0000000000)
 A2 = (   1.5961189270,   2.7645590765,   0.0000000000)
 A3 = (   0.0000000000,   0.0000000000,  13.3782939911)


Analysis of symmetry for initial positions (statically):
=====================================================================
 Subroutine PRICEL returns:
 Original cell was already a primitive cell.
 

 Routine SETGRP: Setting up the symmetry group for a 
 hexagonal supercell.


 Subroutine GETGRP returns: Found  2 space group operations
 (whereof  2 operations were pure point group operations)
 out of a pool of 24 trial point group operations.


The static configuration has the point symmetry C_1h.


Analysis of symmetry for dynamics (positions and initial velocities):
=====================================================================
 Subroutine PRICEL returns:
 Original cell was already a primitive cell.
 

 Routine SETGRP: Setting up the symmetry group for a 
 hexagonal supercell.


 Subroutine GETGRP returns: Found  2 space group operations
 (whereof  2 operations were pure point group operations)
 out of a pool of 24 trial point group operations.


The dynamic configuration has the point symmetry C_1h.


 Subroutine INISYM returns: Found  2 space group operations
 (whereof  2 operations are pure point group operations),
 and found     1 'primitive' translations


----------------------------------------------------------------------------------------

                                     Primitive cell                                     

  volume of cell :     118.0652

  direct lattice vectors                    reciprocal lattice vectors
     1.596118927 -2.764559076  0.000000000     0.313259865 -0.180860668  0.000000000
     1.596118927  2.764559076  0.000000000     0.313259865  0.180860668  0.000000000
     0.000000000  0.000000000 13.378293991     0.000000000  0.000000000  0.074747946

  length of vectors
     3.192237854  3.192237854 13.378293991     0.361721335  0.361721335  0.074747946

  position of ions in fractional coordinates (direct lattice)
     0.666666667  0.333333333  0.250000000
     0.333333333  0.666666667  0.750000000
     0.134608256  0.865391744  0.580681006
     0.333333333  0.666666667  0.366918000
     0.666666667  0.333333333  0.866918000
     0.333333333  0.666666667  0.133082000

  ion indices of the primitive-cell ions
   primitive index   ion index
                 1           1
                 2           2
                 3           3
                 4           4
                 5           5
                 6           6

----------------------------------------------------------------------------------------

 
 
 KPOINTS: K-Spacing Value to Generate K-Mesh: 0.15

Automatic generation of k-mesh.
 Grid dimensions read from file:
 generate k-points for:    2    2    1

 Generating k-lattice:

  Cartesian coordinates                     Fractional coordinates (reciprocal lattice)
     0.156629933 -0.090430334  0.000000000     0.500000000  0.000000000  0.000000000
     0.156629933  0.090430334  0.000000000     0.000000000  0.500000000  0.000000000
     0.000000000  0.000000000  0.074747946     0.000000000  0.000000000  1.000000000

  Length of vectors
     0.180860668  0.180860668  0.074747946

  Shift w.r.t. Gamma in fractional coordinates (k-lattice)
     0.500000000  0.500000000  0.000000000

 
 Subroutine IBZKPT returns following result:
 ===========================================
 
 Found      4 irreducible k-points:
 
 Following reciprocal coordinates:
            Coordinates               Weight
  0.250000  0.250000  0.000000      2.000000
 -0.250000  0.500000  0.000000      4.000000
 -0.250000  0.250000  0.000000      2.000000
 -0.250000  0.000000  0.000000      4.000000
 
 Following cartesian coordinates:
            Coordinates               Weight
  0.156630  0.000000  0.000000      2.000000
  0.078315  0.135646  0.000000      4.000000
  0.000000  0.090430  0.000000      2.000000
 -0.078315  0.045215  0.000000      4.000000
 


--------------------------------------------------------------------------------------------------------




 Dimension of arrays:
   k-points           NKPTS =      4   k-points in BZ     NKDIM =      4   number of bands    NBANDS=     32
   number of dos      NEDOS =    301   number of ions     NIONS =      6
   non local maximal  LDIM  =      6   non local SUM 2l+1 LMDIM =     18
   total plane-waves  NPLWV =  56448
   max r-space proj   IRMAX =      1   max aug-charges    IRDMAX=  21106
   dimension x,y,z NGX =    24 NGY =   24 NGZ =   98
   dimension x,y,z NGXF=    48 NGYF=   48 NGZF=  196
   support grid    NGXF=    48 NGYF=   48 NGZF=  196
   ions per type =               2   4
   NGX,Y,Z   is equivalent  to a cutoff of  12.50, 12.50, 12.18 a.u.
   NGXF,Y,Z  is equivalent  to a cutoff of  25.00, 25.00, 24.36 a.u.

 SYSTEM =  MoS2_SinglePoint_vdW_Coulomb           
 POSCAR =  Mo S                                    

 Startparameter for this run:
   NWRITE =      1    write-flag & timer
   PREC   = accura    normal or accurate (medium, high low for compatibility)
   ISTART =      1    job   : 0-new  1-cont  2-samecut
   ICHARG =      0    charge: 1-file 2-atom 10-const
   ISPIN  =      1    spin polarized calculation?
   LNONCOLLINEAR =      F non collinear calculations
   LSORBIT =      F    spin-orbit coupling
   INIWAV =      1    electr: 0-lowe 1-rand  2-diag
   LASPH  =      F    aspherical Exc in radial PAW
   METAGGA=      F    non-selfconsistent MetaGGA calc.

 Electronic Relaxation 1
   ENCUT  =  500.0 eV  36.75 Ry    6.06 a.u.   5.82  5.82 24.39*2*pi/ulx,y,z
   ENINI  =  500.0     initial cutoff
   ENAUG  =  446.0 eV  augmentation charge cutoff
   NELM   =    100;   NELMIN=  5; NELMDL=  0     # of ELM steps 
   EDIFF  = 0.1E-05   stopping-criterion for ELM
   LREAL  =      F    real-space projection
   NLSPLINE    = F    spline interpolate recip. space projectors
   LCOMPAT=      F    compatible to vasp.4.4
   GGA_COMPAT  = T    GGA compatible to vasp.4.4-vasp.4.6
   LMAXPAW     = -100 max onsite density
   LMAXMIX     =    2 max onsite mixed and CHGCAR
   VOSKOWN=      0    Vosko Wilk Nusair interpolation
   ROPT   =    0.00000   0.00000
 Ionic relaxation
   EDIFFG = 0.1E-04   stopping-criterion for IOM
   NSW    =      0    number of steps for IOM
   NBLOCK =      1;   KBLOCK =      1    inner block; outer block 
   IBRION =     -1    ionic relax: 0-MD 1-quasi-New 2-CG
   NFREE  =      0    steps in history (QN), initial steepest desc. (CG)
   ISIF   =      2    stress and relaxation
   IWAVPR =     10    prediction:  0-non 1-charg 2-wave 3-comb
   ISYM   =      2    0-nonsym 1-usesym 2-fastsym
   LCORR  =      T    Harris-Foulkes like correction to forces

   POTIM  = 0.5000    time-step for ionic-motion
   TEIN   =    0.0    initial temperature
   TEBEG  =    0.0;   TEEND  =   0.0 temperature during run
   SMASS  =  -3.00    Nose mass-parameter (am)
   estimated Nose-frequenzy (Omega)   =  0.10E-29 period in steps = 0.13E+47 mass=  -0.233E-27a.u.
   SCALEE = 1.0000    scale energy and forces
   NPACO  =    256;   APACO  = 16.0  distance and # of slots for P.C.
   PSTRESS=    0.0 pullay stress

  Mass of Ions in am
   POMASS =  95.94 32.07
  Ionic Valenz
   ZVAL   =  14.00  6.00
  Atomic Wigner-Seitz radii
   RWIGS  =  -1.00 -1.00
  virtual crystal weights 
   VCA    =   1.00  1.00
   NELECT =      52.0000    total number of electrons
   NUPDOWN=      -1.0000    fix difference up-down

 DOS related values:
   EMIN   =  10.00;   EMAX   =-10.00  energy-range for DOS
   EFERMI =   0.00
   ISMEAR =     0;   SIGMA  =   0.05  broadening in eV -4-tet -1-fermi 0-gaus

 Electronic relaxation 2 (details)
   IALGO  =     38    algorithm
   LDIAG  =      T    sub-space diagonalisation (order eigenvalues)
   LSUBROT=      F    optimize rotation matrix (better conditioning)
   TURBO    =      0    0=normal 1=particle mesh
   IRESTART =      0    0=no restart 2=restart with 2 vectors
   NREBOOT  =      0    no. of reboots
   NMIN     =      0    reboot dimension
   EREF     =   0.00    reference energy to select bands
   IMIX   =      4    mixing-type and parameters
     AMIX     =   0.40;   BMIX     =  1.00
     AMIX_MAG =   1.60;   BMIX_MAG =  1.00
     AMIN     =   0.10
     WC   =   100.;   INIMIX=   1;  MIXPRE=   1;  MAXMIX= -45

 Intra band minimization:
   WEIMIN = 0.0000     energy-eigenvalue tresh-hold
   EBREAK =  0.78E-08  absolut break condition
   DEPER  =   0.30     relativ break condition  

   TIME   =   0.40     timestep for ELM

  volume/ion in A,a.u.               =      19.68       132.79
  Fermi-wavevector in a.u.,A,eV,Ry     =   1.245571  2.353789 21.108736  1.551448
  Thomas-Fermi vector in A             =   2.379788
 
 Write flags
   LWAVE        =      T    write WAVECAR
   LDOWNSAMPLE  =      F    k-point downsampling of WAVECAR
   LCHARG       =      T    write CHGCAR
   LVTOT        =      F    write LOCPOT, total local potential
   LVHAR        =      F    write LOCPOT, Hartree potential only
   LELF         =      F    write electronic localiz. function (ELF)
   LORBIT       =      0    0 simple, 1 ext, 2 COOP (PROOUT), +10 PAW based schemes


 Dipole corrections
   LMONO  =      F    monopole corrections only (constant potential shift)
   LDIPOL =      F    correct potential (dipole corrections)
   IDIPOL =      0    1-x, 2-y, 3-z, 4-all directions 
   EPSILON=  1.0000000 bulk dielectric constant

 Exchange correlation treatment:
   GGA     =    PE    GGA type
   LEXCH   =     8    internal setting for exchange type
   VOSKOWN=      0    Vosko Wilk Nusair interpolation
   LHFCALC =     F    Hartree Fock is set to
   LHFONE  =     F    Hartree Fock one center treatment
   AEXX    =    0.0000 exact exchange contribution

 Linear response parameters
   LEPSILON=     F    determine dielectric tensor
   LRPA    =     F    only Hartree local field effects (RPA)
   LNABLA  =     F    use nabla operator in PAW spheres
   LVEL    =     F    velocity operator in full k-point grid
   LINTERFAST=   F  fast interpolation
   KINTER  =     0    interpolate to denser k-point grid
   CSHIFT  =0.1000    complex shift for real part using Kramers Kronig
   OMEGAMAX=  -1.0    maximum frequency
   DEG_THRESHOLD= 0.2000000E-02 threshold for treating states as degnerate
   RTIME   =   -0.100 relaxation time in fs
  (WPLASMAI=    0.000 imaginary part of plasma frequency in eV, 0.658/RTIME)
   DFIELD  = 0.0000000 0.0000000 0.0000000 field for delta impulse in time
 
 Orbital magnetization related:
   ORBITALMAG=     F  switch on orbital magnetization
   LCHIMAG   =     F  perturbation theory with respect to B field
   DQ        =  0.001000  dq finite difference perturbation B field
   LLRAUG    =     F  two centre corrections for induced B field



--------------------------------------------------------------------------------------------------------


 Static calculation
 charge density and potential will be updated during run
 non-spin polarized calculation
 Variant of blocked Davidson
 Davidson routine will perform the subspace rotation
 perform sub-space diagonalisation
    after iterative eigenvector-optimisation
 modified Broyden-mixing scheme, WC =      100.0
 initial mixing is a Kerker type mixing with AMIX =  0.4000 and BMIX =      1.0000
 Hartree-type preconditioning will be used
 using additional bands            6
 reciprocal scheme for non local part
 use partial core corrections
 calculate Harris-corrections to forces 
   (improved forces if not selfconsistent)
 use gradient corrections 
 use of overlap-Matrix (Vanderbilt PP)
 Gauss-broadening in eV      SIGMA  =   0.05


--------------------------------------------------------------------------------------------------------


  energy-cutoff  :      500.00
  volume of cell :      118.07
      direct lattice vectors                 reciprocal lattice vectors
     1.596118927 -2.764559076  0.000000000     0.313259865 -0.180860668  0.000000000
     1.596118927  2.764559076  0.000000000     0.313259865  0.180860668  0.000000000
     0.000000000  0.000000000 13.378293991     0.000000000  0.000000000  0.074747946

  length of vectors
     3.192237854  3.192237854 13.378293991     0.361721335  0.361721335  0.074747946


 
 old parameters found on file WAVECAR:
  energy-cutoff  :      500.00
  volume of cell :      118.07
      direct lattice vectors                 reciprocal lattice vectors
     1.596118927 -2.764559076  0.000000000     0.313259865 -0.180860668  0.000000000
     1.596118927  2.764559076  0.000000000     0.313259865  0.180860668  0.000000000
     0.000000000  0.000000000 13.378293991     0.000000000  0.000000000  0.074747946

  length of vectors

 
 k-points in units of 2pi/SCALE and weight: K-Spacing Value to Generate K-Mesh: 0.15
   0.15662993  0.00000000  0.00000000       0.167
   0.07831497  0.13564550  0.00000000       0.333
   0.00000000  0.09043033  0.00000000       0.167
  -0.07831497  0.04521517  0.00000000       0.333
 
 k-points in reciprocal lattice and weights: K-Spacing Value to Generate K-Mesh: 0.15
   0.25000000  0.25000000  0.00000000       0.167
  -0.25000000  0.50000000  0.00000000       0.333
  -0.25000000  0.25000000  0.00000000       0.167
  -0.25000000  0.00000000  0.00000000       0.333
 
 position of ions in fractional coordinates (direct lattice) 
   0.66666667  0.33333333  0.25000000
   0.33333333  0.66666667  0.75000000
   0.13460826  0.86539174  0.58068101
   0.33333333  0.66666667  0.36691800
   0.66666667  0.33333333  0.86691800
   0.33333333  0.66666667  0.13308200
 
 position of ions in cartesian coordinates  (Angst):
   1.59611893 -0.92151969  3.34457350
   1.59611893  0.92151969 10.03372049
   1.59611893  2.02029412  7.76852121
   1.59611893  0.92151969  4.90873687
   1.59611893 -0.92151969 11.59788387
   1.59611893  0.92151969  1.78041012
 


--------------------------------------------------------------------------------------------------------


 k-point   1 :   0.2500 0.2500 0.0000  plane waves:    3020
 k-point   2 :  -0.2500 0.5000 0.0000  plane waves:    3020
 k-point   3 :  -0.2500 0.2500 0.0000  plane waves:    2992
 k-point   4 :  -0.2500 0.0000 0.0000  plane waves:    2992

 maximum and minimum number of plane-waves per node :       764      745

 maximum number of plane-waves:      3020
 maximum index in each direction: 
   IXMAX=    6   IYMAX=    5   IZMAX=   24
   IXMIN=   -6   IYMIN=   -6   IZMIN=  -24


 parallel 3D FFT for wavefunctions:
    minimum data exchange during FFTs selected (reduces bandwidth)
 parallel 3D FFT for charge:
    minimum data exchange during FFTs selected (reduces bandwidth)


 total amount of memory used by VASP MPI-rank0    37866. kBytes
=======================================================================

   base      :      30000. kBytes
   nonl-proj :        950. kBytes
   fftplans  :       2329. kBytes
   grid      :       3750. kBytes
   one-center:         31. kBytes
   wavefun   :        806. kBytes
 
     INWAV:  cpu time    0.0502: real time    0.1258
 Broyden mixing: mesh for mixing (old mesh)
   NGX = 11   NGY = 11   NGZ = 49
  (NGX  = 48   NGY  = 48   NGZ  =196)
  gives a total of   5929 points

 charge density for first step will be calculated from the start-wavefunctions


--------------------------------------------------------------------------------------------------------


 Maximum index for augmentation-charges         2591 (set IRDMAX)


--------------------------------------------------------------------------------------------------------


 initial charge from wavefunction
 First call to EWALD:  gamma=   0.361
 Maximum number of real-space cells 4x 4x 1
 Maximum number of reciprocal cells 2x 2x 7

    FEWALD:  cpu time    0.0020: real time    0.0020


--------------------------------------- Iteration      1(   1)  ---------------------------------------


    POTLOK:  cpu time    0.0553: real time    0.0602
    SETDIJ:  cpu time    0.0055: real time    0.0055
     EDDAV:  cpu time    0.2952: real time    0.2965
       DOS:  cpu time    0.0008: real time    0.0081
    CHARGE:  cpu time    0.0323: real time    0.0325
    MIXING:  cpu time    0.0014: real time    0.0014
    --------------------------------------------
      LOOP:  cpu time    0.3906: real time    0.4043

 eigenvalue-minimisations  :   336
 total energy-change (2. order) :-0.4156552E+02  (-0.4383225E-05)
 number of electron      51.9999990 magnetization 
 augmentation part        1.5492338 magnetization 

 Broyden mixing:
  rms(total) = 0.15200E-02    rms(broyden)= 0.15200E-02
  rms(prec ) = 0.29113E-02
  weight for this iteration     100.00

 Free energy of the ion-electron system (eV)
  ---------------------------------------------------
  alpha Z        PSCENC =       160.27286088
  Ewald energy   TEWEN  =     -3049.71140172
  -Hartree energ DENC   =     -1667.80290037
  -exchange      EXHF   =         0.00000000
  -V(xc)+E(xc)   XCENC  =       180.14003189
  PAW double counting   =      5505.86275230    -5463.19558800
  entropy T*S    EENTRO =        -0.01055980
  eigenvalues    EBANDS =      -538.96334048
  atomic energy  EATOM  =      4831.84262874
  Solvation  Ediel_sol  =         0.00000000
  ---------------------------------------------------
  free energy    TOTEN  =       -41.56551656 eV

  energy without entropy =      -41.55495676  energy(sigma->0) =      -41.56023666


--------------------------------------------------------------------------------------------------------




--------------------------------------- Iteration      1(   2)  ---------------------------------------


    POTLOK:  cpu time    0.0552: real time    0.0580
    SETDIJ:  cpu time    0.0054: real time    0.0054
     EDDAV:  cpu time    0.3110: real time    0.3133
       DOS:  cpu time    0.0005: real time    0.0005
    CHARGE:  cpu time    0.0323: real time    0.0323
    MIXING:  cpu time    0.0014: real time    0.0014
    --------------------------------------------
      LOOP:  cpu time    0.4058: real time    0.4108

 eigenvalue-minimisations  :   368
 total energy-change (2. order) :-0.2032943E-04  (-0.3227241E-04)
 number of electron      51.9999990 magnetization 
 augmentation part        1.5522540 magnetization 

 Broyden mixing:
  rms(total) = 0.32159E-02    rms(broyden)= 0.32159E-02
  rms(prec ) = 0.57329E-02
  weight for this iteration     100.00

 eigenvalues of (default mixing * dielectric matrix)
  average eigenvalue GAMMA=   0.3153
  0.3153

 Free energy of the ion-electron system (eV)
  ---------------------------------------------------
  alpha Z        PSCENC =       160.27286088
  Ewald energy   TEWEN  =     -3049.71140172
  -Hartree energ DENC   =     -1667.71614225
  -exchange      EXHF   =         0.00000000
  -V(xc)+E(xc)   XCENC  =       180.13855352
  PAW double counting   =      5505.65296451    -5462.99128509
  entropy T*S    EENTRO =        -0.01058491
  eigenvalues    EBANDS =      -539.04313057
  atomic energy  EATOM  =      4831.84262874
  Solvation  Ediel_sol  =         0.00000000
  ---------------------------------------------------
  free energy    TOTEN  =       -41.56553689 eV

  energy without entropy =      -41.55495198  energy(sigma->0) =      -41.56024444


--------------------------------------------------------------------------------------------------------




--------------------------------------- Iteration      1(   3)  ---------------------------------------


    POTLOK:  cpu time    0.0551: real time    0.0593
    SETDIJ:  cpu time    0.0054: real time    0.0054
     EDDAV:  cpu time    0.3201: real time    0.3203
       DOS:  cpu time    0.0005: real time    0.0005
    CHARGE:  cpu time    0.0324: real time    0.0324
    MIXING:  cpu time    0.0015: real time    0.0015
    --------------------------------------------
      LOOP:  cpu time    0.4151: real time    0.4195

 eigenvalue-minimisations  :   376
 total energy-change (2. order) : 0.2775623E-04  (-0.1405907E-04)
 number of electron      51.9999990 magnetization 
 augmentation part        1.5502896 magnetization 

 Broyden mixing:
  rms(total) = 0.19554E-03    rms(broyden)= 0.19543E-03
  rms(prec ) = 0.21744E-03
  weight for this iteration     100.00

 eigenvalues of (default mixing * dielectric matrix)
  average eigenvalue GAMMA=   0.3968
  0.3968  0.3968

 Free energy of the ion-electron system (eV)
  ---------------------------------------------------
  alpha Z        PSCENC =       160.27286088
  Ewald energy   TEWEN  =     -3049.71140172
  -Hartree energ DENC   =     -1667.77248326
  -exchange      EXHF   =         0.00000000
  -V(xc)+E(xc)   XCENC  =       180.13953833
  PAW double counting   =      5505.81353616    -5463.14788994
  entropy T*S    EENTRO =        -0.01056730
  eigenvalues    EBANDS =      -538.99173102
  atomic energy  EATOM  =      4831.84262874
  Solvation  Ediel_sol  =         0.00000000
  ---------------------------------------------------
  free energy    TOTEN  =       -41.56550913 eV

  energy without entropy =      -41.55494183  energy(sigma->0) =      -41.56022548


--------------------------------------------------------------------------------------------------------




--------------------------------------- Iteration      1(   4)  ---------------------------------------


    POTLOK:  cpu time    0.0561: real time    0.0597
    SETDIJ:  cpu time    0.0053: real time    0.0053
     EDDAV:  cpu time    0.2242: real time    0.2246
       DOS:  cpu time    0.0005: real time    0.0005
    CHARGE:  cpu time    0.0322: real time    0.0322
    MIXING:  cpu time    0.0015: real time    0.0015
    --------------------------------------------
      LOOP:  cpu time    0.3198: real time    0.3238

 eigenvalue-minimisations  :   232
 total energy-change (2. order) :-0.8317875E-07  (-0.1441361E-06)
 number of electron      51.9999990 magnetization 
 augmentation part        1.5502196 magnetization 

 Broyden mixing:
  rms(total) = 0.75209E-04    rms(broyden)= 0.75193E-04
  rms(prec ) = 0.97589E-04
  weight for this iteration     100.00

 eigenvalues of (default mixing * dielectric matrix)
  average eigenvalue GAMMA=   0.5640
  0.7768  0.3402  0.5751

 Free energy of the ion-electron system (eV)
  ---------------------------------------------------
  alpha Z        PSCENC =       160.27286088
  Ewald energy   TEWEN  =     -3049.71140172
  -Hartree energ DENC   =     -1667.77320118
  -exchange      EXHF   =         0.00000000
  -V(xc)+E(xc)   XCENC  =       180.13955729
  PAW double counting   =      5505.81667975    -5463.15087294
  entropy T*S    EENTRO =        -0.01056729
  eigenvalues    EBANDS =      -538.99119274
  atomic energy  EATOM  =      4831.84262874
  Solvation  Ediel_sol  =         0.00000000
  ---------------------------------------------------
  free energy    TOTEN  =       -41.56550922 eV

  energy without entropy =      -41.55494192  energy(sigma->0) =      -41.56022557


--------------------------------------------------------------------------------------------------------




--------------------------------------- Iteration      1(   5)  ---------------------------------------


    POTLOK:  cpu time    0.0549: real time    0.0590
    SETDIJ:  cpu time    0.0053: real time    0.0053
     EDDAV:  cpu time    0.2142: real time    0.2164
       DOS:  cpu time    0.0005: real time    0.0005
    --------------------------------------------
      LOOP:  cpu time    0.2749: real time    0.2812

 eigenvalue-minimisations  :   216
 total energy-change (2. order) : 0.2170691E-07  (-0.8673307E-08)
 number of electron      51.9999990 magnetization 
 augmentation part        1.5502196 magnetization 

 Free energy of the ion-electron system (eV)
  ---------------------------------------------------
  alpha Z        PSCENC =       160.27286088
  Ewald energy   TEWEN  =     -3049.71140172
  -Hartree energ DENC   =     -1667.77207206
  -exchange      EXHF   =         0.00000000
  -V(xc)+E(xc)   XCENC  =       180.13952592
  PAW double counting   =      5505.82155594    -5463.15566800
  entropy T*S    EENTRO =        -0.01056729
  eigenvalues    EBANDS =      -538.99237160
  atomic energy  EATOM  =      4831.84262874
  Solvation  Ediel_sol  =         0.00000000
  ---------------------------------------------------
  free energy    TOTEN  =       -41.56550919 eV

  energy without entropy =      -41.55494190  energy(sigma->0) =      -41.56022555


--------------------------------------------------------------------------------------------------------




 average (electrostatic) potential at core
  the test charge radii are     1.0818  0.9698
  (the norm of the test charge is              1.0000)
       1 -75.9165       2 -75.9819       3 -85.5981       4 -85.6991       5 -85.7351
       6 -85.6344
 
 
 
 E-fermi :   6.1377     XC(G=0): -10.3402     alpha+bet :-12.2268

 Fermi energy:         6.1376559249

 k-point     1 :       0.2500    0.2500    0.0000
  band No.  band energies     occupation 
      1     -55.1611      2.00000
      2     -55.1266      2.00000
      3     -29.3666      2.00000
      4     -29.3027      2.00000
      5     -29.2770      2.00000
      6     -29.2558      2.00000
      7     -29.2459      2.00000
      8     -29.2228      2.00000
      9      -6.6121      2.00000
     10      -6.4554      2.00000
     11      -6.3690      2.00000
     12      -5.4257      2.00000
     13       0.5863      2.00000
     14       0.7894      2.00000
     15       0.9223      2.00000
     16       1.8625      2.00000
     17       2.0841      2.00000
     18       2.1722      2.00000
     19       2.5971      2.00000
     20       2.7428      2.00000
     21       2.8949      2.00000
     22       3.4525      2.00000
     23       3.9277      2.00000
     24       4.1991      2.00000
     25       5.2068      2.00000
     26       5.8274      2.00000
     27       6.0789      1.90350
     28       7.7830      0.00000
     29       8.0416      0.00000
     30       8.4750      0.00000
     31       8.6065      0.00000
     32       8.8879      0.00000

 k-point     2 :      -0.2500    0.5000    0.0000
  band No.  band energies     occupation 
      1     -55.1610      2.00000
      2     -55.1266      2.00000
      3     -29.3710      2.00000
      4     -29.3647      2.00000
      5     -29.2895      2.00000
      6     -29.2770      2.00000
      7     -29.2248      2.00000
      8     -29.1440      2.00000
      9      -6.6051      2.00000
     10      -6.4602      2.00000
     11      -6.3621      2.00000
     12      -5.4328      2.00000
     13       0.5774      2.00000
     14       0.7766      2.00000
     15       0.9019      2.00000
     16       1.7894      2.00000
     17       2.0864      2.00000
     18       2.2388      2.00000
     19       2.5758      2.00000
     20       2.7463      2.00000
     21       2.9320      2.00000
     22       3.5338      2.00000
     23       3.9049      2.00000
     24       4.1511      2.00000
     25       5.2083      2.00000
     26       5.5695      2.00000
     27       6.3836      0.00000
     28       7.7569      0.00000
     29       8.0240      0.00000
     30       8.4188      0.00000
     31       8.6312      0.00000
     32       8.7215      0.00000

 k-point     3 :      -0.2500    0.2500    0.0000
  band No.  band energies     occupation 
      1     -55.1777      2.00000
      2     -55.1445      2.00000
      3     -29.3279      2.00000
      4     -29.3129      2.00000
      5     -29.2782      2.00000
      6     -29.2532      2.00000
      7     -29.1160      2.00000
      8     -29.0267      2.00000
      9      -7.6076      2.00000
     10      -7.1893      2.00000
     11      -6.8389      2.00000
     12      -6.2298      2.00000
     13       0.5954      2.00000
     14       1.3832      2.00000
     15       1.6965      2.00000
     16       2.0259      2.00000
     17       2.1741      2.00000
     18       3.2019      2.00000
     19       3.2121      2.00000
     20       3.6158      2.00000
     21       3.7668      2.00000
     22       3.9109      2.00000
     23       4.4392      2.00000
     24       4.9747      2.00000
     25       5.3565      2.00000
     26       5.7766      2.00000
     27       6.3899      0.00000
     28       7.2734      0.00000
     29       7.9958      0.00000
     30       8.0455      0.00000
     31       8.3682      0.00000
     32       8.9936      0.00000

 k-point     4 :      -0.2500    0.0000    0.0000
  band No.  band energies     occupation 
      1     -55.1778      2.00000
      2     -55.1445      2.00000
      3     -29.3249      2.00000
      4     -29.3129      2.00000
      5     -29.2552      2.00000
      6     -29.2176      2.00000
      7     -29.1139      2.00000
      8     -29.0902      2.00000
      9      -7.6109      2.00000
     10      -7.1980      2.00000
     11      -6.8455      2.00000
     12      -6.2106      2.00000
     13       0.5803      2.00000
     14       1.3770      2.00000
     15       1.7816      2.00000
     16       2.0021      2.00000
     17       2.1796      2.00000
     18       3.1585      2.00000
     19       3.2196      2.00000
     20       3.5761      2.00000
     21       3.8745      2.00000
     22       3.9189      2.00000
     23       4.5016      2.00000
     24       4.9546      2.00000
     25       5.0714      2.00000
     26       6.1355      1.04825
     27       6.4633      0.00000
     28       6.9844      0.00000
     29       7.9549      0.00000
     30       8.0315      0.00000
     31       8.4642      0.00000
     32       8.7534      0.00000


--------------------------------------------------------------------------------------------------------


 soft charge-density along one line, spin component           1
         0         1         2         3         4         5         6         7         8         9
 total charge-density along one line
 
 pseudopotential strength for first ion, spin component:           1
 -5.018  11.445  -0.000  -0.001  -0.000   0.000   0.001   0.000
 11.445   3.262   0.000   0.001   0.000  -0.000  -0.000  -0.000
 -0.000   0.000 -18.123   0.000  -0.000   8.968  -0.000   0.000
 -0.001   0.001   0.000 -18.135  -0.000  -0.000   8.983   0.000
 -0.000   0.000  -0.000  -0.000 -18.124   0.000   0.000   8.969
  0.000  -0.000   8.968  -0.000   0.000   5.719   0.000  -0.000
  0.001  -0.000  -0.000   8.983   0.000   0.000   5.709  -0.000
  0.000  -0.000   0.000   0.000   8.969  -0.000  -0.000   5.718
 -0.000   0.000  -0.000   0.000   0.007   0.000  -0.000  -0.004
  0.000  -0.000  -0.001  -0.000   0.000   0.001   0.000  -0.000
 -0.007   0.005   0.000  -0.001   0.000  -0.000   0.000  -0.000
 -0.000   0.000   0.000  -0.000  -0.001  -0.000   0.000   0.000
 -0.000   0.000   0.008   0.000  -0.000  -0.004  -0.000   0.000
 -0.000   0.000  -0.000   0.000   0.008   0.000  -0.000  -0.004
  0.000  -0.000  -0.001  -0.000   0.000   0.001   0.000  -0.000
 -0.008   0.005   0.000  -0.001   0.000  -0.000   0.000  -0.000
 -0.000   0.000   0.000  -0.000  -0.001  -0.000   0.000   0.001
 -0.000   0.000   0.008   0.000  -0.000  -0.004  -0.000   0.000
 total augmentation occupancy for first ion, spin component:           1
  1.995  -0.042  -0.000   0.000   0.000  -0.000   0.000   0.000   0.000  -0.001   0.016   0.000   0.001   0.000   0.001  -0.015
 -0.042   1.240  -0.000   0.001   0.000   0.000  -0.002   0.000   0.000   0.005  -0.114   0.000  -0.003   0.000  -0.003   0.173
 -0.000  -0.000   1.998  -0.000   0.000  -0.043  -0.000   0.000   0.000   0.000  -0.000   0.000   0.008   0.000  -0.000   0.000
  0.000   0.001  -0.000   1.998   0.000  -0.000  -0.051   0.000   0.000   0.000   0.001   0.000   0.001   0.000  -0.000  -0.001
  0.000   0.000   0.000   0.000   1.998   0.000   0.000  -0.043   0.009   0.000   0.000   0.001   0.000   0.002   0.000   0.000
 -0.000   0.000  -0.043  -0.000   0.000   0.091   0.000   0.000   0.000   0.001   0.000   0.000   0.187   0.000  -0.001  -0.000
  0.000  -0.002  -0.000  -0.051   0.000   0.000   0.123   0.000   0.000   0.003  -0.003   0.000  -0.002   0.000  -0.001   0.002
  0.000   0.000   0.000   0.000  -0.043   0.000   0.000   0.091   0.188   0.000   0.000  -0.001   0.000  -0.214   0.000   0.000
  0.000   0.000   0.000   0.000   0.009   0.000   0.000   0.188   2.408   0.000   0.000  -0.016   0.000  -2.737   0.000   0.000
 -0.001   0.005   0.000   0.000   0.000   0.001   0.003   0.000   0.000   3.909   0.004   0.000  -0.017   0.000  -4.869  -0.001
  0.016  -0.114  -0.000   0.001   0.000   0.000  -0.003   0.000   0.000   0.004   1.543   0.000  -0.006   0.000  -0.001  -1.670
  0.000   0.000   0.000   0.000   0.001   0.000   0.000  -0.001  -0.016   0.000   0.000   3.903   0.000   0.007   0.000   0.000
  0.001  -0.003   0.008   0.001   0.000   0.187  -0.002   0.000   0.000  -0.017  -0.006   0.000   2.407   0.000   0.006   0.002
  0.000   0.000   0.000   0.000   0.002   0.000   0.000  -0.214  -2.737   0.000   0.000   0.007   0.000   3.880   0.000   0.000
  0.001  -0.003  -0.000  -0.000   0.000  -0.001  -0.001   0.000   0.000  -4.869  -0.001   0.000   0.006   0.000   6.441  -0.001
 -0.015   0.173   0.000  -0.001   0.000  -0.000   0.002   0.000   0.000  -0.001  -1.670   0.000   0.002   0.000  -0.001   2.654
  0.000   0.000   0.000   0.000  -0.000   0.000   0.000   0.000   0.008   0.000   0.000  -4.872   0.000  -0.002   0.000   0.000
 -0.001   0.002   0.003  -0.000   0.000  -0.214   0.001   0.000   0.000   0.006   0.002   0.000  -2.738   0.000  -0.001   0.001


------------------------ aborting loop because EDIFF is reached ----------------------------------------


    CHARGE:  cpu time    0.0322: real time    0.0322
    FORLOC:  cpu time    0.0047: real time    0.0047
    FORNL :  cpu time    0.0541: real time    0.0542
    STRESS:  cpu time    0.1193: real time    0.1194
    FORCOR:  cpu time    0.0589: real time    0.0589
    FORHAR:  cpu time    0.0146: real time    0.0146
    MIXING:  cpu time    0.0014: real time    0.0014
    OFIELD:  cpu time    0.0000: real time    0.0000

  FORCE on cell =-STRESS in cart. coord.  units (eV):
  Direction    XX          YY          ZZ          XY          YZ          ZX
  --------------------------------------------------------------------------------------
  Alpha Z   160.27286   160.27286   160.27286
  Ewald    -320.73230  -287.15442 -2441.82736     0.00000   -29.67564     0.00000
  Hartree  1152.34515  1164.26248  -648.83794    -0.00000   -11.53369    -0.00000
  E(xc)    -217.95894  -217.90306  -218.06410    -0.00000    -0.03975    -0.00000
  Local   -1840.41472 -1879.78107  2083.25409     0.00000    42.28699    -0.00000
  n-local   235.75486   235.36280   244.11678    -3.48250    -2.27800    -0.60566
  augment    -1.16468    -1.78131    -4.07328    -0.00000     0.47535     0.00000
  Kinetic   829.57058   822.69077   817.67408    -7.46214     1.42300     2.15605
  Fock        0.00000     0.00000     0.00000     0.00000     0.00000     0.00000
  -------------------------------------------------------------------------------------
  Total      -2.32719    -4.03096    -7.48487     0.00000     0.65825     0.00000
  in kB     -31.58066   -54.70127  -101.57174     0.00000     8.93270     0.00000
  external pressure =      -62.62 kB  Pullay stress =        0.00 kB


 VOLUME and BASIS-vectors are now :
 -----------------------------------------------------------------------------
  energy-cutoff  :      500.00
  volume of cell :      118.07
      direct lattice vectors                 reciprocal lattice vectors
     1.596118927 -2.764559076  0.000000000     0.313259865 -0.180860668  0.000000000
     1.596118927  2.764559076  0.000000000     0.313259865  0.180860668  0.000000000
     0.000000000  0.000000000 13.378293991     0.000000000  0.000000000  0.074747946

  length of vectors
     3.192237854  3.192237854 13.378293991     0.361721335  0.361721335  0.074747946


 FORCES acting on ions
    electron-ion (+dipol)            ewald-force                    non-local-force                 convergence-correction
 -----------------------------------------------------------------------------------------------
   -.492E-08 -.476E-02 0.900E+02   -.446E-13 -.142E-01 -.901E+02   0.000E+00 -.256E-01 0.143E+00   0.163E-13 0.506E-06 -.153E-02
   -.246E-07 0.174E+02 0.291E+02   -.136E-13 -.153E+02 -.268E+02   0.139E-16 -.145E+01 -.332E+01   -.197E-13 -.653E-04 0.271E-02
   0.634E-07 -.172E+02 0.182E+03   0.109E-14 0.170E+02 -.184E+03   0.000E+00 -.110E+00 0.482E+01   -.254E-14 0.287E-04 0.118E-02
   -.666E-07 0.172E+01 -.376E+03   0.169E-13 -.171E+01 0.380E+03   0.000E+00 -.678E-01 -.475E+01   -.393E-14 0.468E-05 -.337E-03
   -.882E-07 0.414E+00 -.375E+03   -.459E-14 -.233E-01 0.378E+03   0.000E+00 -.727E+00 -.520E+01   -.106E-14 0.117E-04 -.789E-03
   0.683E-07 -.132E-01 0.453E+03   0.150E-13 -.146E-02 -.458E+03   0.000E+00 0.134E-01 0.508E+01   -.643E-14 -.781E-06 -.306E-03
 -----------------------------------------------------------------------------------------------
   -.527E-07 0.237E+01 0.323E+01   -.299E-13 0.899E-14 -.114E-12   0.139E-16 -.237E+01 -.323E+01   -.173E-13 -.205E-04 0.927E-03
 
 
 POSITION                                       TOTAL-FORCE (eV/Angst)
 -----------------------------------------------------------------------------------
      1.59612     -0.92152      3.34457         0.000000     -0.044552     -0.027407
      1.59612      0.92152     10.03372         0.000000      0.721500     -1.028024
      1.59612      2.02029      7.76852         0.000000     -0.279318      2.515802
      1.59612      0.92152      4.90874         0.000000     -0.059988     -0.450251
      1.59612     -0.92152     11.59788         0.000000     -0.336436     -1.308042
      1.59612      0.92152      1.78041         0.000000     -0.001205      0.297922
 -----------------------------------------------------------------------------------
    total drift:                               -0.000000     -0.000054     -0.000188


--------------------------------------------------------------------------------------------------------



  FREE ENERGIE OF THE ION-ELECTRON SYSTEM (eV)
  ---------------------------------------------------
  free  energy   TOTEN  =       -41.56550919 eV

  energy  without entropy=      -41.55494190  energy(sigma->0) =      -41.56022555
 


--------------------------------------------------------------------------------------------------------


    POTLOK:  cpu time    0.0603: real time    0.0603


--------------------------------------------------------------------------------------------------------


 stress matrix after NEB project (eV)
     -2.32719      0.00000      0.00000
      0.00000     -4.03096      0.65825
      0.00000      0.65825     -7.48487
  FORCES: max atom, RMS     2.531260    1.297861
  FORCE total and by dimension    3.179097    2.515802
  Stress total and by dimension    8.863088    7.484868
 writing wavefunctions
     LOOP+:  cpu time    2.9380: real time    3.2979
                                                                                                                                                                                                                                                                                                                                                                                                                                                                                                                                                                                                                                                                                                                                                                                                                                                                                                                                                                                                                                                                                                                                                                                                                                                                                                                                                                                                                                                                                                                                                                                                                                                                                                                                                                                                                                                                                                                                                                                                                                                                                                                                                                                                                                                                                                                                                                                                                                                                                                                                                                                                                                                                                                                                                                                                                                                                                                                                                                                                                                                                                                                                                                                                                                                                                                                                                                                                                                                                                                                                                                                                                                                                                                                                                                                                                                                                                                                                                                                                                                                                                                                                                                                                                                                                                                                                                                                                                                                                                                                                                                                                                                                                                                                                                                                                                                                                                                                                                                                                                                                                                                                                                                                                                                                                                                                                                                                                                                                                                                                                                                                                                                                                                                                                                                                                                                                                                                                                                                                                                                                                                                                                                                                                                                                                                                                                                                                                                                                                                                                                                                                                                                                                                                                                                                                                                                                                                                                                                                                                                                                                                                                                                                                                                                                                                                                                                                                                                                                                                                                                                                                                                                                                                                                                                                                                                                                                                                                                                                                                                                                                                                                                                                                                                                                                                                                                                                                                                                                                                                                                                                                                                                                                                                                                                                                                                                                                                                                                                                                                                                                                                                                                                                                                                                                                                                                                                                                                                                                                                                                                                                                                                                                                                                                                                                                                                                                                                                                                                                                                                                                                                                                                                                                                                                                                                                                                                                                                                                                                                                                                                                                                                                                                                                                                                                                                                                                                                                                                                                                                                                                                                                                                                                                                                                                                                                                                                                                                                                                                                                                                                                                                                                                                                                                                                                                                                                                                                                                                                                                                                                                                                                                                                                                                                                                                                                                                                                                                                                                                                                                                                                                                                                                                                                                                                                                                                                                                                                                                                                                                                                                                                                                                                                                                                                                                                                                                                                                                                                                                                                                                                                                                                                                                                                                                                                                                                                                                                                                                                                                                                                                                                                                                                                                                                                                                                                                                                                                                                                                                                                                                                                                                                                                                                                                                                                                                                                                                                                                                                                                                                                                                                                                                                                                                                                                                                                                                                                                                                                                                                                                                                                                                                                                                                                                                                                                                                                                                                                                                                                                                                                                                                                                                                                                                                                                                                                                                                                                                                                                                                                                                                                                                                                                                                                                                                                                                                                                                                                                                                                                                                                                                                                                                                                                                                                                                                                                                                                                                                                                                                                                                                                                                                                                                                                                                                                                                                                                                                                                                                                                                                                                                                                                                                                                                                                                                                                                                                                                                                                                                                                                                                                                                                                                                                                                                                                                                                                                                                                                                                                                                                                                                                                                                                                                                                                                                                                                                                                                                                                                                                                                                                                                                                                                                                                                                                                                                                                                                                                                                                                                                                                                                                                                                                                                                                                                                                                                                                                                                                                                                                                                                                                                                                                                                                                                                                                                                                                                                                                                                                                                                                                                                                           4ORBIT:  cpu time    0.0000: real time    0.0000

 total amount of memory used by VASP MPI-rank0    37866. kBytes
=======================================================================

   base      :      30000. kBytes
   nonl-proj :        950. kBytes
   fftplans  :       2329. kBytes
   grid      :       3750. kBytes
   one-center:         31. kBytes
   wavefun   :        806. kBytes
 
  
  
 General timing and accounting informations for this job:
 ========================================================
  
                  Total CPU time used (sec):        8.564
                            User time (sec):        7.746
                          System time (sec):        0.818
                         Elapsed time (sec):        9.115
  
                   Maximum memory used (kb):      123060.
                   Average memory used (kb):          N/A
  
                          Minor page faults:        22648
                          Major page faults:            0
                 Voluntary context switches:          938
    4ORBIT:  cpu time    0.0000: real time    0.0000

 total amount of memory used by VASP MPI-rank0    37866. kBytes
=======================================================================

   base      :      30000. kBytes
   nonl-proj :        950. kBytes
   fftplans  :       2329. kBytes
   grid      :       3750. kBytes
   one-center:         31. kBytes
   wavefun   :        806. kBytes
 
  
  
 General timing and accounting informations for this job:
 ========================================================
  
                  Total CPU time used (sec):        4.564
                            User time (sec):        3.833
                          System time (sec):        0.731
                         Elapsed time (sec):        5.673
  
                   Maximum memory used (kb):      123084.
                   Average memory used (kb):          N/A
  
                          Minor page faults:        19264
                          Major page faults:            0
                 Voluntary context switches:         1021
