 vasp.6.2.0 18Jan21 (build Jul 31 2023 14:19:35) complex                        
  
 executed on             LinuxIFC date 2025.09.17  12:07:53
 running on    8 total cores
 distrk:  each k-point on    8 cores,    1 groups
 distr:  one band on NCORE=   4 cores,    2 groups


--------------------------------------------------------------------------------------------------------


 INCAR:
   SYSTEM = MoS2_SinglePoint_vdW_Coulomb
   PREC = Accurate
   ENCUT = 500
   GGA = PE
   ALGO = Normal
   NELM = 100
   NELMIN = 5
   EDIFF = 1E-6
   ISMEAR = 0
   SIGMA = 0.05
   IBRION = -1
   NSW = 0
   IVDW = 12
   LREAL = .FALSE.
   LCHARG = .TRUE.
   LWAVE = .TRUE.
   NWRITE = 1
   NCORE = 4

 POTCAR:    PAW_PBE Mo_sv 02Feb2006               
 POTCAR:    PAW_PBE S 06Sep2000                   
 POTCAR:    PAW_PBE Mo_sv 02Feb2006               
  local pseudopotential read in
  partial core-charges read in
  partial kinetic energy density read in
  atomic valenz-charges read in
  non local Contribution for L=           0  read in
    real space projection operators read in
  non local Contribution for L=           0  read in
    real space projection operators read in
  non local Contribution for L=           1  read in
    real space projection operators read in
  non local Contribution for L=           1  read in
    real space projection operators read in
  non local Contribution for L=           2  read in
    real space projection operators read in
  non local Contribution for L=           2  read in
    real space projection operators read in
    PAW grid and wavefunctions read in
 
   number of l-projection  operators is LMAX  =           6
   number of lm-projection operators is LMMAX =          18
 
 POTCAR:    PAW_PBE S 06Sep2000                   
  local pseudopotential read in
  partial core-charges read in
  partial kinetic energy density read in
  atomic valenz-charges read in
  non local Contribution for L=           0  read in
    real space projection operators read in
  non local Contribution for L=           0  read in
    real space projection operators read in
  non local Contribution for L=           1  read in
    real space projection operators read in
  non local Contribution for L=           1  read in
    real space projection operators read in
    PAW grid and wavefunctions read in
 
   number of l-projection  operators is LMAX  =           4
   number of lm-projection operators is LMMAX =           8
 
  PAW_PBE Mo_sv 02Feb2006               :
 energy of atom  1       EATOM=-1862.2866
 kinetic energy error for atom=    0.0074 (will be added to EATOM!!)
  PAW_PBE S 06Sep2000                   :
 energy of atom  2       EATOM= -276.8230
 kinetic energy error for atom=    0.0020 (will be added to EATOM!!)
 
 
 POSCAR: Mo S
  positions in direct lattice
  No initial velocities read in
 exchange correlation table for  LEXCH =        8
   RHO(1)=    0.500       N(1)  =     2000
   RHO(2)=  100.500       N(2)  =     4000

 VTST: version 4.0, (05/15/20)

 CHAIN: initializing optimizer
 
 OPT: Using VASP Dynamics algorithm
 CHAIN: Read ICHAIN            0
 
 POSCAR: Mo S
  positions in direct lattice
  No initial velocities read in
 


--------------------------------------------------------------------------------------------------------


 ion  position               nearest neighbor table
   1  0.667  0.333  0.250-   4 2.42   6 2.42   4 2.42   6 2.42   4 2.42   6 2.42
   2  0.333  0.667  0.750-   5 2.42   5 2.42   5 2.42   3 2.81
   3  0.266  0.734  0.542-   4 2.37   2 2.81
   4  0.333  0.667  0.367-   3 2.37   1 2.42   1 2.42   1 2.42
   5  0.667  0.333  0.867-   2 2.42   2 2.42   2 2.42
   6  0.333  0.667  0.133-   1 2.42   1 2.42   1 2.42
 
  LATTYP: Found a hexagonal cell.
 ALAT       =     3.1922378540
 C/A-ratio  =     4.1908825730
  
  Lattice vectors:
  
 A1 = (   1.5961189270,  -2.7645590765,   0.0000000000)
 A2 = (   1.5961189270,   2.7645590765,   0.0000000000)
 A3 = (   0.0000000000,   0.0000000000,  13.3782939911)


Analysis of symmetry for initial positions (statically):
=====================================================================
 Subroutine PRICEL returns:
 Original cell was already a primitive cell.
 

 Routine SETGRP: Setting up the symmetry group for a 
 hexagonal supercell.


 Subroutine GETGRP returns: Found  2 space group operations
 (whereof  2 operations were pure point group operations)
 out of a pool of 24 trial point group operations.


The static configuration has the point symmetry C_1h.


Analysis of symmetry for dynamics (positions and initial velocities):
=====================================================================
 Subroutine PRICEL returns:
 Original cell was already a primitive cell.
 

 Routine SETGRP: Setting up the symmetry group for a 
 hexagonal supercell.


 Subroutine GETGRP returns: Found  2 space group operations
 (whereof  2 operations were pure point group operations)
 out of a pool of 24 trial point group operations.


The dynamic configuration has the point symmetry C_1h.


 Subroutine INISYM returns: Found  2 space group operations
 (whereof  2 operations are pure point group operations),
 and found     1 'primitive' translations


----------------------------------------------------------------------------------------

                                     Primitive cell                                     

  volume of cell :     118.0652

  direct lattice vectors                    reciprocal lattice vectors
     1.596118927 -2.764559076  0.000000000     0.313259865 -0.180860668  0.000000000
     1.596118927  2.764559076  0.000000000     0.313259865  0.180860668  0.000000000
     0.000000000  0.000000000 13.378293991     0.000000000  0.000000000  0.074747946

  length of vectors
     3.192237854  3.192237854 13.378293991     0.361721335  0.361721335  0.074747946

  position of ions in fractional coordinates (direct lattice)
     0.666666667  0.333333333  0.250000000
     0.333333333  0.666666667  0.750000000
     0.266438228  0.733561772  0.542074410
     0.333333333  0.666666667  0.366918000
     0.666666667  0.333333333  0.866918000
     0.333333333  0.666666667  0.133082000

  ion indices of the primitive-cell ions
   primitive index   ion index
                 1           1
                 2           2
                 3           3
                 4           4
                 5           5
                 6           6

----------------------------------------------------------------------------------------

 
 
 KPOINTS: K-Spacing Value to Generate K-Mesh: 0.15

Automatic generation of k-mesh.
 Grid dimensions read from file:
 generate k-points for:    2    2    1

 Generating k-lattice:

  Cartesian coordinates                     Fractional coordinates (reciprocal lattice)
     0.156629933 -0.090430334  0.000000000     0.500000000  0.000000000  0.000000000
     0.156629933  0.090430334  0.000000000     0.000000000  0.500000000  0.000000000
     0.000000000  0.000000000  0.074747946     0.000000000  0.000000000  1.000000000

  Length of vectors
     0.180860668  0.180860668  0.074747946

  Shift w.r.t. Gamma in fractional coordinates (k-lattice)
     0.500000000  0.500000000  0.000000000

 
 Subroutine IBZKPT returns following result:
 ===========================================
 
 Found      4 irreducible k-points:
 
 Following reciprocal coordinates:
            Coordinates               Weight
  0.250000  0.250000  0.000000      2.000000
 -0.250000  0.500000  0.000000      4.000000
 -0.250000  0.250000  0.000000      2.000000
 -0.250000  0.000000  0.000000      4.000000
 
 Following cartesian coordinates:
            Coordinates               Weight
  0.156630  0.000000  0.000000      2.000000
  0.078315  0.135646  0.000000      4.000000
  0.000000  0.090430  0.000000      2.000000
 -0.078315  0.045215  0.000000      4.000000
 


--------------------------------------------------------------------------------------------------------




 Dimension of arrays:
   k-points           NKPTS =      4   k-points in BZ     NKDIM =      4   number of bands    NBANDS=     32
   number of dos      NEDOS =    301   number of ions     NIONS =      6
   non local maximal  LDIM  =      6   non local SUM 2l+1 LMDIM =     18
   total plane-waves  NPLWV =  56448
   max r-space proj   IRMAX =      1   max aug-charges    IRDMAX=  21106
   dimension x,y,z NGX =    24 NGY =   24 NGZ =   98
   dimension x,y,z NGXF=    48 NGYF=   48 NGZF=  196
   support grid    NGXF=    48 NGYF=   48 NGZF=  196
   ions per type =               2   4
   NGX,Y,Z   is equivalent  to a cutoff of  12.50, 12.50, 12.18 a.u.
   NGXF,Y,Z  is equivalent  to a cutoff of  25.00, 25.00, 24.36 a.u.

 SYSTEM =  MoS2_SinglePoint_vdW_Coulomb           
 POSCAR =  Mo S                                    

 Startparameter for this run:
   NWRITE =      1    write-flag & timer
   PREC   = accura    normal or accurate (medium, high low for compatibility)
   ISTART =      0    job   : 0-new  1-cont  2-samecut
   ICHARG =      2    charge: 1-file 2-atom 10-const
   ISPIN  =      1    spin polarized calculation?
   LNONCOLLINEAR =      F non collinear calculations
   LSORBIT =      F    spin-orbit coupling
   INIWAV =      1    electr: 0-lowe 1-rand  2-diag
   LASPH  =      F    aspherical Exc in radial PAW
   METAGGA=      F    non-selfconsistent MetaGGA calc.

 Electronic Relaxation 1
   ENCUT  =  500.0 eV  36.75 Ry    6.06 a.u.   5.82  5.82 24.39*2*pi/ulx,y,z
   ENINI  =  500.0     initial cutoff
   ENAUG  =  446.0 eV  augmentation charge cutoff
   NELM   =    100;   NELMIN=  5; NELMDL= -5     # of ELM steps 
   EDIFF  = 0.1E-05   stopping-criterion for ELM
   LREAL  =      F    real-space projection
   NLSPLINE    = F    spline interpolate recip. space projectors
   LCOMPAT=      F    compatible to vasp.4.4
   GGA_COMPAT  = T    GGA compatible to vasp.4.4-vasp.4.6
   LMAXPAW     = -100 max onsite density
   LMAXMIX     =    2 max onsite mixed and CHGCAR
   VOSKOWN=      0    Vosko Wilk Nusair interpolation
   ROPT   =    0.00000   0.00000
 Ionic relaxation
   EDIFFG = 0.1E-04   stopping-criterion for IOM
   NSW    =      0    number of steps for IOM
   NBLOCK =      1;   KBLOCK =      1    inner block; outer block 
   IBRION =     -1    ionic relax: 0-MD 1-quasi-New 2-CG
   NFREE  =      0    steps in history (QN), initial steepest desc. (CG)
   ISIF   =      2    stress and relaxation
   IWAVPR =     10    prediction:  0-non 1-charg 2-wave 3-comb
   ISYM   =      2    0-nonsym 1-usesym 2-fastsym
   LCORR  =      T    Harris-Foulkes like correction to forces

   POTIM  = 0.5000    time-step for ionic-motion
   TEIN   =    0.0    initial temperature
   TEBEG  =    0.0;   TEEND  =   0.0 temperature during run
   SMASS  =  -3.00    Nose mass-parameter (am)
   estimated Nose-frequenzy (Omega)   =  0.10E-29 period in steps = 0.13E+47 mass=  -0.233E-27a.u.
   SCALEE = 1.0000    scale energy and forces
   NPACO  =    256;   APACO  = 16.0  distance and # of slots for P.C.
   PSTRESS=    0.0 pullay stress

  Mass of Ions in am
   POMASS =  95.94 32.07
  Ionic Valenz
   ZVAL   =  14.00  6.00
  Atomic Wigner-Seitz radii
   RWIGS  =  -1.00 -1.00
  virtual crystal weights 
   VCA    =   1.00  1.00
   NELECT =      52.0000    total number of electrons
   NUPDOWN=      -1.0000    fix difference up-down

 DOS related values:
   EMIN   =  10.00;   EMAX   =-10.00  energy-range for DOS
   EFERMI =   0.00
   ISMEAR =     0;   SIGMA  =   0.05  broadening in eV -4-tet -1-fermi 0-gaus

 Electronic relaxation 2 (details)
   IALGO  =     38    algorithm
   LDIAG  =      T    sub-space diagonalisation (order eigenvalues)
   LSUBROT=      F    optimize rotation matrix (better conditioning)
   TURBO    =      0    0=normal 1=particle mesh
   IRESTART =      0    0=no restart 2=restart with 2 vectors
   NREBOOT  =      0    no. of reboots
   NMIN     =      0    reboot dimension
   EREF     =   0.00    reference energy to select bands
   IMIX   =      4    mixing-type and parameters
     AMIX     =   0.40;   BMIX     =  1.00
     AMIX_MAG =   1.60;   BMIX_MAG =  1.00
     AMIN     =   0.10
     WC   =   100.;   INIMIX=   1;  MIXPRE=   1;  MAXMIX= -45

 Intra band minimization:
   WEIMIN = 0.0000     energy-eigenvalue tresh-hold
   EBREAK =  0.78E-08  absolut break condition
   DEPER  =   0.30     relativ break condition  

   TIME   =   0.40     timestep for ELM

  volume/ion in A,a.u.               =      19.68       132.79
  Fermi-wavevector in a.u.,A,eV,Ry     =   1.245571  2.353789 21.108736  1.551448
  Thomas-Fermi vector in A             =   2.379788
 
 Write flags
   LWAVE        =      T    write WAVECAR
   LDOWNSAMPLE  =      F    k-point downsampling of WAVECAR
   LCHARG       =      T    write CHGCAR
   LVTOT        =      F    write LOCPOT, total local potential
   LVHAR        =      F    write LOCPOT, Hartree potential only
   LELF         =      F    write electronic localiz. function (ELF)
   LORBIT       =      0    0 simple, 1 ext, 2 COOP (PROOUT), +10 PAW based schemes


 Dipole corrections
   LMONO  =      F    monopole corrections only (constant potential shift)
   LDIPOL =      F    correct potential (dipole corrections)
   IDIPOL =      0    1-x, 2-y, 3-z, 4-all directions 
   EPSILON=  1.0000000 bulk dielectric constant

 Exchange correlation treatment:
   GGA     =    PE    GGA type
   LEXCH   =     8    internal setting for exchange type
   VOSKOWN=      0    Vosko Wilk Nusair interpolation
   LHFCALC =     F    Hartree Fock is set to
   LHFONE  =     F    Hartree Fock one center treatment
   AEXX    =    0.0000 exact exchange contribution

 Linear response parameters
   LEPSILON=     F    determine dielectric tensor
   LRPA    =     F    only Hartree local field effects (RPA)
   LNABLA  =     F    use nabla operator in PAW spheres
   LVEL    =     F    velocity operator in full k-point grid
   LINTERFAST=   F  fast interpolation
   KINTER  =     0    interpolate to denser k-point grid
   CSHIFT  =0.1000    complex shift for real part using Kramers Kronig
   OMEGAMAX=  -1.0    maximum frequency
   DEG_THRESHOLD= 0.2000000E-02 threshold for treating states as degnerate
   RTIME   =   -0.100 relaxation time in fs
  (WPLASMAI=    0.000 imaginary part of plasma frequency in eV, 0.658/RTIME)
   DFIELD  = 0.0000000 0.0000000 0.0000000 field for delta impulse in time
 
 Orbital magnetization related:
   ORBITALMAG=     F  switch on orbital magnetization
   LCHIMAG   =     F  perturbation theory with respect to B field
   DQ        =  0.001000  dq finite difference perturbation B field
   LLRAUG    =     F  two centre corrections for induced B field



--------------------------------------------------------------------------------------------------------


 Static calculation
 charge density and potential will be updated during run
 non-spin polarized calculation
 Variant of blocked Davidson
 Davidson routine will perform the subspace rotation
 perform sub-space diagonalisation
    after iterative eigenvector-optimisation
 modified Broyden-mixing scheme, WC =      100.0
 initial mixing is a Kerker type mixing with AMIX =  0.4000 and BMIX =      1.0000
 Hartree-type preconditioning will be used
 using additional bands            6
 reciprocal scheme for non local part
 use partial core corrections
 calculate Harris-corrections to forces 
   (improved forces if not selfconsistent)
 use gradient corrections 
 use of overlap-Matrix (Vanderbilt PP)
 Gauss-broadening in eV      SIGMA  =   0.05


--------------------------------------------------------------------------------------------------------


  energy-cutoff  :      500.00
  volume of cell :      118.07
      direct lattice vectors                 reciprocal lattice vectors
     1.596118927 -2.764559076  0.000000000     0.313259865 -0.180860668  0.000000000
     1.596118927  2.764559076  0.000000000     0.313259865  0.180860668  0.000000000
     0.000000000  0.000000000 13.378293991     0.000000000  0.000000000  0.074747946

  length of vectors
     3.192237854  3.192237854 13.378293991     0.361721335  0.361721335  0.074747946


 
 k-points in units of 2pi/SCALE and weight: K-Spacing Value to Generate K-Mesh: 0.15
   0.15662993  0.00000000  0.00000000       0.167
   0.07831497  0.13564550  0.00000000       0.333
   0.00000000  0.09043033  0.00000000       0.167
  -0.07831497  0.04521517  0.00000000       0.333
 
 k-points in reciprocal lattice and weights: K-Spacing Value to Generate K-Mesh: 0.15
   0.25000000  0.25000000  0.00000000       0.167
  -0.25000000  0.50000000  0.00000000       0.333
  -0.25000000  0.25000000  0.00000000       0.167
  -0.25000000  0.00000000  0.00000000       0.333
 
 position of ions in fractional coordinates (direct lattice) 
   0.66666667  0.33333333  0.25000000
   0.33333333  0.66666667  0.75000000
   0.26643823  0.73356177  0.54207441
   0.33333333  0.66666667  0.36691800
   0.66666667  0.33333333  0.86691800
   0.33333333  0.66666667  0.13308200
 
 position of ions in cartesian coordinates  (Angst):
   1.59611893 -0.92151969  3.34457350
   1.59611893  0.92151969 10.03372049
   1.59611893  1.29139063  7.25203082
   1.59611893  0.92151969  4.90873687
   1.59611893 -0.92151969 11.59788387
   1.59611893  0.92151969  1.78041012
 


--------------------------------------------------------------------------------------------------------


 k-point   1 :   0.2500 0.2500 0.0000  plane waves:    3020
 k-point   2 :  -0.2500 0.5000 0.0000  plane waves:    3020
 k-point   3 :  -0.2500 0.2500 0.0000  plane waves:    2992
 k-point   4 :  -0.2500 0.0000 0.0000  plane waves:    2992

 maximum and minimum number of plane-waves per node :       764      745

 maximum number of plane-waves:      3020
 maximum index in each direction: 
   IXMAX=    6   IYMAX=    5   IZMAX=   24
   IXMIN=   -6   IYMIN=   -6   IZMIN=  -24


 parallel 3D FFT for wavefunctions:
    minimum data exchange during FFTs selected (reduces bandwidth)
 parallel 3D FFT for charge:
    minimum data exchange during FFTs selected (reduces bandwidth)


 total amount of memory used by VASP MPI-rank0    37866. kBytes
=======================================================================

   base      :      30000. kBytes
   nonl-proj :        950. kBytes
   fftplans  :       2329. kBytes
   grid      :       3750. kBytes
   one-center:         31. kBytes
   wavefun   :        806. kBytes
 
     INWAV:  cpu time    0.0001: real time    0.0006
 Broyden mixing: mesh for mixing (old mesh)
   NGX = 11   NGY = 11   NGZ = 49
  (NGX  = 48   NGY  = 48   NGZ  =196)
  gives a total of   5929 points

 initial charge density was supplied:
 charge density of overlapping atoms calculated
 number of electron      52.0000000 magnetization 
 keeping initial charge density in first step


--------------------------------------------------------------------------------------------------------


 Maximum index for augmentation-charges         2591 (set IRDMAX)


--------------------------------------------------------------------------------------------------------


 First call to EWALD:  gamma=   0.361
 Maximum number of real-space cells 4x 4x 1
 Maximum number of reciprocal cells 2x 2x 7

    FEWALD:  cpu time    0.0019: real time    0.0019


--------------------------------------- Iteration      1(   1)  ---------------------------------------


    POTLOK:  cpu time    0.0561: real time    0.0585
    SETDIJ:  cpu time    0.0056: real time    0.0062
     EDDAV:  cpu time    0.2686: real time    0.2963
       DOS:  cpu time    0.0009: real time    0.0009
    --------------------------------------------
      LOOP:  cpu time    0.3313: real time    0.3619

 eigenvalue-minimisations  :   288
 total energy-change (2. order) : 0.4084273E+03  (-0.2895379E+04)
 number of electron      52.0000000 magnetization 
 augmentation part       52.0000000 magnetization 

 Free energy of the ion-electron system (eV)
  ---------------------------------------------------
  alpha Z        PSCENC =       160.27286088
  Ewald energy   TEWEN  =     -3081.04276652
  -Hartree energ DENC   =     -1676.65463343
  -exchange      EXHF   =         0.00000000
  -V(xc)+E(xc)   XCENC  =       181.65134184
  PAW double counting   =      3865.57804258    -3815.84821480
  entropy T*S    EENTRO =        -0.01265671
  eigenvalues    EBANDS =       -57.35928420
  atomic energy  EATOM  =      4831.84262874
  Solvation  Ediel_sol  =         0.00000000
  ---------------------------------------------------
  free energy    TOTEN  =       408.42731839 eV

  energy without entropy =      408.43997510  energy(sigma->0) =      408.43364674


--------------------------------------------------------------------------------------------------------




--------------------------------------- Iteration      1(   2)  ---------------------------------------


     EDDAV:  cpu time    0.2672: real time    0.2717
       DOS:  cpu time    0.0007: real time    0.0007
    --------------------------------------------
      LOOP:  cpu time    0.2679: real time    0.2724

 eigenvalue-minimisations  :   296
 total energy-change (2. order) :-0.4283015E+03  (-0.4181799E+03)
 number of electron      52.0000000 magnetization 
 augmentation part       52.0000000 magnetization 

 Free energy of the ion-electron system (eV)
  ---------------------------------------------------
  alpha Z        PSCENC =       160.27286088
  Ewald energy   TEWEN  =     -3081.04276652
  -Hartree energ DENC   =     -1676.65463343
  -exchange      EXHF   =         0.00000000
  -V(xc)+E(xc)   XCENC  =       181.65134184
  PAW double counting   =      3865.57804258    -3815.84821480
  entropy T*S    EENTRO =        -0.01484338
  eigenvalues    EBANDS =      -485.65861948
  atomic energy  EATOM  =      4831.84262874
  Solvation  Ediel_sol  =         0.00000000
  ---------------------------------------------------
  free energy    TOTEN  =       -19.87420355 eV

  energy without entropy =      -19.85936018  energy(sigma->0) =      -19.86678187


--------------------------------------------------------------------------------------------------------




--------------------------------------- Iteration      1(   3)  ---------------------------------------


     EDDAV:  cpu time    0.2906: real time    0.2944
       DOS:  cpu time    0.0005: real time    0.0005
    --------------------------------------------
      LOOP:  cpu time    0.2911: real time    0.2950

 eigenvalue-minimisations  :   336
 total energy-change (2. order) :-0.2243382E+02  (-0.2204044E+02)
 number of electron      52.0000000 magnetization 
 augmentation part       52.0000000 magnetization 

 Free energy of the ion-electron system (eV)
  ---------------------------------------------------
  alpha Z        PSCENC =       160.27286088
  Ewald energy   TEWEN  =     -3081.04276652
  -Hartree energ DENC   =     -1676.65463343
  -exchange      EXHF   =         0.00000000
  -V(xc)+E(xc)   XCENC  =       181.65134184
  PAW double counting   =      3865.57804258    -3815.84821480
  entropy T*S    EENTRO =        -0.01363950
  eigenvalues    EBANDS =      -508.09364130
  atomic energy  EATOM  =      4831.84262874
  Solvation  Ediel_sol  =         0.00000000
  ---------------------------------------------------
  free energy    TOTEN  =       -42.30802150 eV

  energy without entropy =      -42.29438200  energy(sigma->0) =      -42.30120175


--------------------------------------------------------------------------------------------------------




--------------------------------------- Iteration      1(   4)  ---------------------------------------


     EDDAV:  cpu time    0.2732: real time    0.2776
       DOS:  cpu time    0.0005: real time    0.0005
    --------------------------------------------
      LOOP:  cpu time    0.2737: real time    0.2782

 eigenvalue-minimisations  :   312
 total energy-change (2. order) :-0.5509057E+00  (-0.5487894E+00)
 number of electron      52.0000000 magnetization 
 augmentation part       52.0000000 magnetization 

 Free energy of the ion-electron system (eV)
  ---------------------------------------------------
  alpha Z        PSCENC =       160.27286088
  Ewald energy   TEWEN  =     -3081.04276652
  -Hartree energ DENC   =     -1676.65463343
  -exchange      EXHF   =         0.00000000
  -V(xc)+E(xc)   XCENC  =       181.65134184
  PAW double counting   =      3865.57804258    -3815.84821480
  entropy T*S    EENTRO =        -0.01247932
  eigenvalues    EBANDS =      -508.64570719
  atomic energy  EATOM  =      4831.84262874
  Solvation  Ediel_sol  =         0.00000000
  ---------------------------------------------------
  free energy    TOTEN  =       -42.85892722 eV

  energy without entropy =      -42.84644789  energy(sigma->0) =      -42.85268756


--------------------------------------------------------------------------------------------------------




--------------------------------------- Iteration      1(   5)  ---------------------------------------


     EDDAV:  cpu time    0.3083: real time    0.3124
       DOS:  cpu time    0.0005: real time    0.0005
    CHARGE:  cpu time    0.0333: real time    0.0333
    MIXING:  cpu time    0.0014: real time    0.0014
    --------------------------------------------
      LOOP:  cpu time    0.3435: real time    0.3476

 eigenvalue-minimisations  :   352
 total energy-change (2. order) :-0.1356950E-01  (-0.1355869E-01)
 number of electron      51.9999991 magnetization 
 augmentation part        0.6621964 magnetization 

 Broyden mixing:
  rms(total) = 0.29176E+01    rms(broyden)= 0.29176E+01
  rms(prec ) = 0.30661E+01
  weight for this iteration     100.00

 Free energy of the ion-electron system (eV)
  ---------------------------------------------------
  alpha Z        PSCENC =       160.27286088
  Ewald energy   TEWEN  =     -3081.04276652
  -Hartree energ DENC   =     -1676.65463343
  -exchange      EXHF   =         0.00000000
  -V(xc)+E(xc)   XCENC  =       181.65134184
  PAW double counting   =      3865.57804258    -3815.84821480
  entropy T*S    EENTRO =        -0.01246395
  eigenvalues    EBANDS =      -508.65929207
  atomic energy  EATOM  =      4831.84262874
  Solvation  Ediel_sol  =         0.00000000
  ---------------------------------------------------
  free energy    TOTEN  =       -42.87249672 eV

  energy without entropy =      -42.86003278  energy(sigma->0) =      -42.86626475


--------------------------------------------------------------------------------------------------------




--------------------------------------- Iteration      1(   6)  ---------------------------------------


    POTLOK:  cpu time    0.0554: real time    0.0585
    SETDIJ:  cpu time    0.0054: real time    0.0054
     EDDAV:  cpu time    0.2834: real time    0.2835
       DOS:  cpu time    0.0004: real time    0.0004
    CHARGE:  cpu time    0.0321: real time    0.0322
    MIXING:  cpu time    0.0015: real time    0.0015
    --------------------------------------------
      LOOP:  cpu time    0.3782: real time    0.3814

 eigenvalue-minimisations  :   328
 total energy-change (2. order) :-0.9865955E+00  (-0.4881565E+01)
 number of electron      51.9999989 magnetization 
 augmentation part        2.4964069 magnetization 

 Broyden mixing:
  rms(total) = 0.16607E+01    rms(broyden)= 0.16607E+01
  rms(prec ) = 0.24992E+01
  weight for this iteration     100.00

 eigenvalues of (default mixing * dielectric matrix)
  average eigenvalue GAMMA=   0.9335
  0.9335

 Free energy of the ion-electron system (eV)
  ---------------------------------------------------
  alpha Z        PSCENC =       160.27286088
  Ewald energy   TEWEN  =     -3081.04276652
  -Hartree energ DENC   =     -1611.15209885
  -exchange      EXHF   =         0.00000000
  -V(xc)+E(xc)   XCENC  =       179.78543235
  PAW double counting   =      4450.22509417    -4407.31165565
  entropy T*S    EENTRO =        -0.00002994
  eigenvalues    EBANDS =      -566.47855740
  atomic energy  EATOM  =      4831.84262874
  Solvation  Ediel_sol  =         0.00000000
  ---------------------------------------------------
  free energy    TOTEN  =       -43.85909223 eV

  energy without entropy =      -43.85906228  energy(sigma->0) =      -43.85907726


--------------------------------------------------------------------------------------------------------




--------------------------------------- Iteration      1(   7)  ---------------------------------------


    POTLOK:  cpu time    0.0548: real time    0.0588
    SETDIJ:  cpu time    0.0053: real time    0.0053
     EDDAV:  cpu time    0.3039: real time    0.3040
       DOS:  cpu time    0.0005: real time    0.0005
    CHARGE:  cpu time    0.0326: real time    0.0326
    MIXING:  cpu time    0.0015: real time    0.0015
    --------------------------------------------
      LOOP:  cpu time    0.3986: real time    0.4027

 eigenvalue-minimisations  :   360
 total energy-change (2. order) : 0.2784432E+00  (-0.8686470E+01)
 number of electron      51.9999990 magnetization 
 augmentation part        1.0900530 magnetization 

 Broyden mixing:
  rms(total) = 0.12265E+01    rms(broyden)= 0.12265E+01
  rms(prec ) = 0.19938E+01
  weight for this iteration     100.00

 eigenvalues of (default mixing * dielectric matrix)
  average eigenvalue GAMMA=   0.9069
  1.4401  0.3738

 Free energy of the ion-electron system (eV)
  ---------------------------------------------------
  alpha Z        PSCENC =       160.27286088
  Ewald energy   TEWEN  =     -3081.04276652
  -Hartree energ DENC   =     -1656.94159199
  -exchange      EXHF   =         0.00000000
  -V(xc)+E(xc)   XCENC  =       180.66054442
  PAW double counting   =      4837.17010212    -4791.39584821
  entropy T*S    EENTRO =        -0.00013274
  eigenvalues    EBANDS =      -524.14644571
  atomic energy  EATOM  =      4831.84262874
  Solvation  Ediel_sol  =         0.00000000
  ---------------------------------------------------
  free energy    TOTEN  =       -43.58064901 eV

  energy without entropy =      -43.58051627  energy(sigma->0) =      -43.58058264


--------------------------------------------------------------------------------------------------------




--------------------------------------- Iteration      1(   8)  ---------------------------------------


    POTLOK:  cpu time    0.0549: real time    0.0592
    SETDIJ:  cpu time    0.0053: real time    0.0053
     EDDAV:  cpu time    0.2952: real time    0.2954
       DOS:  cpu time    0.0005: real time    0.0005
    CHARGE:  cpu time    0.0324: real time    0.0325
    MIXING:  cpu time    0.0014: real time    0.0014
    --------------------------------------------
      LOOP:  cpu time    0.3898: real time    0.3944

 eigenvalue-minimisations  :   344
 total energy-change (2. order) : 0.3141033E+01  (-0.1183861E+01)
 number of electron      51.9999991 magnetization 
 augmentation part        1.2478552 magnetization 

 Broyden mixing:
  rms(total) = 0.58785E+00    rms(broyden)= 0.58784E+00
  rms(prec ) = 0.68655E+00
  weight for this iteration     100.00

 eigenvalues of (default mixing * dielectric matrix)
  average eigenvalue GAMMA=   0.9732
  1.9443  0.6147  0.3606

 Free energy of the ion-electron system (eV)
  ---------------------------------------------------
  alpha Z        PSCENC =       160.27286088
  Ewald energy   TEWEN  =     -3081.04276652
  -Hartree energ DENC   =     -1654.85739297
  -exchange      EXHF   =         0.00000000
  -V(xc)+E(xc)   XCENC  =       180.56903303
  PAW double counting   =      5248.11284555    -5203.26211187
  entropy T*S    EENTRO =        -0.01841399
  eigenvalues    EBANDS =      -522.05629873
  atomic energy  EATOM  =      4831.84262874
  Solvation  Ediel_sol  =         0.00000000
  ---------------------------------------------------
  free energy    TOTEN  =       -40.43961587 eV

  energy without entropy =      -40.42120188  energy(sigma->0) =      -40.43040887


--------------------------------------------------------------------------------------------------------




--------------------------------------- Iteration      1(   9)  ---------------------------------------


    POTLOK:  cpu time    0.0550: real time    0.0589
    SETDIJ:  cpu time    0.0053: real time    0.0053
     EDDAV:  cpu time    0.2662: real time    0.2663
       DOS:  cpu time    0.0005: real time    0.0005
    CHARGE:  cpu time    0.0321: real time    0.0321
    MIXING:  cpu time    0.0015: real time    0.0015
    --------------------------------------------
      LOOP:  cpu time    0.3607: real time    0.3647

 eigenvalue-minimisations  :   304
 total energy-change (2. order) : 0.3087528E+00  (-0.1573357E+00)
 number of electron      51.9999990 magnetization 
 augmentation part        1.4885383 magnetization 

 Broyden mixing:
  rms(total) = 0.25257E+00    rms(broyden)= 0.25257E+00
  rms(prec ) = 0.28421E+00
  weight for this iteration     100.00

 eigenvalues of (default mixing * dielectric matrix)
  average eigenvalue GAMMA=   0.9833
  2.2177  0.8534  0.5176  0.3446

 Free energy of the ion-electron system (eV)
  ---------------------------------------------------
  alpha Z        PSCENC =       160.27286088
  Ewald energy   TEWEN  =     -3081.04276652
  -Hartree energ DENC   =     -1639.14393026
  -exchange      EXHF   =         0.00000000
  -V(xc)+E(xc)   XCENC  =       180.12904261
  PAW double counting   =      5511.95593016    -5468.71108556
  entropy T*S    EENTRO =        -0.00983698
  eigenvalues    EBANDS =      -535.42370616
  atomic energy  EATOM  =      4831.84262874
  Solvation  Ediel_sol  =         0.00000000
  ---------------------------------------------------
  free energy    TOTEN  =       -40.13086309 eV

  energy without entropy =      -40.12102611  energy(sigma->0) =      -40.12594460


--------------------------------------------------------------------------------------------------------




--------------------------------------- Iteration      1(  10)  ---------------------------------------


    POTLOK:  cpu time    0.0550: real time    0.0587
    SETDIJ:  cpu time    0.0053: real time    0.0053
     EDDAV:  cpu time    0.2986: real time    0.2987
       DOS:  cpu time    0.0005: real time    0.0005
    CHARGE:  cpu time    0.0321: real time    0.0321
    MIXING:  cpu time    0.0016: real time    0.0016
    --------------------------------------------
      LOOP:  cpu time    0.3931: real time    0.3968

 eigenvalue-minimisations  :   352
 total energy-change (2. order) : 0.1677765E-01  (-0.2995440E-01)
 number of electron      51.9999990 magnetization 
 augmentation part        1.5646569 magnetization 

 Broyden mixing:
  rms(total) = 0.13187E+00    rms(broyden)= 0.13187E+00
  rms(prec ) = 0.14816E+00
  weight for this iteration     100.00

 eigenvalues of (default mixing * dielectric matrix)
  average eigenvalue GAMMA=   1.0624
  2.3010  1.4819  0.3486  0.5901  0.5901

 Free energy of the ion-electron system (eV)
  ---------------------------------------------------
  alpha Z        PSCENC =       160.27286088
  Ewald energy   TEWEN  =     -3081.04276652
  -Hartree energ DENC   =     -1636.29038846
  -exchange      EXHF   =         0.00000000
  -V(xc)+E(xc)   XCENC  =       180.01534834
  PAW double counting   =      5606.52362077    -5563.64937599
  entropy T*S    EENTRO =        -0.00715076
  eigenvalues    EBANDS =      -537.77886243
  atomic energy  EATOM  =      4831.84262874
  Solvation  Ediel_sol  =         0.00000000
  ---------------------------------------------------
  free energy    TOTEN  =       -40.11408544 eV

  energy without entropy =      -40.10693468  energy(sigma->0) =      -40.11051006


--------------------------------------------------------------------------------------------------------




--------------------------------------- Iteration      1(  11)  ---------------------------------------


    POTLOK:  cpu time    0.0568: real time    0.0607
    SETDIJ:  cpu time    0.0053: real time    0.0053
     EDDAV:  cpu time    0.2883: real time    0.2884
       DOS:  cpu time    0.0005: real time    0.0005
    CHARGE:  cpu time    0.0321: real time    0.0321
    MIXING:  cpu time    0.0015: real time    0.0015
    --------------------------------------------
      LOOP:  cpu time    0.3846: real time    0.3886

 eigenvalue-minimisations  :   336
 total energy-change (2. order) : 0.7324777E-02  (-0.7305250E-02)
 number of electron      51.9999990 magnetization 
 augmentation part        1.5631521 magnetization 

 Broyden mixing:
  rms(total) = 0.69049E-01    rms(broyden)= 0.69048E-01
  rms(prec ) = 0.74582E-01
  weight for this iteration     100.00

 eigenvalues of (default mixing * dielectric matrix)
  average eigenvalue GAMMA=   1.1010
  2.1109  2.1109  0.9040  0.3489  0.5656  0.5656

 Free energy of the ion-electron system (eV)
  ---------------------------------------------------
  alpha Z        PSCENC =       160.27286088
  Ewald energy   TEWEN  =     -3081.04276652
  -Hartree energ DENC   =     -1635.66515413
  -exchange      EXHF   =         0.00000000
  -V(xc)+E(xc)   XCENC  =       179.99345051
  PAW double counting   =      5631.96612826    -5589.13094633
  entropy T*S    EENTRO =        -0.00910056
  eigenvalues    EBANDS =      -538.33386152
  atomic energy  EATOM  =      4831.84262874
  Solvation  Ediel_sol  =         0.00000000
  ---------------------------------------------------
  free energy    TOTEN  =       -40.10676066 eV

  energy without entropy =      -40.09766010  energy(sigma->0) =      -40.10221038


--------------------------------------------------------------------------------------------------------




--------------------------------------- Iteration      1(  12)  ---------------------------------------


    POTLOK:  cpu time    0.0572: real time    0.0616
    SETDIJ:  cpu time    0.0055: real time    0.0055
     EDDAV:  cpu time    0.2847: real time    0.2847
       DOS:  cpu time    0.0006: real time    0.0006
    CHARGE:  cpu time    0.0322: real time    0.0323
    MIXING:  cpu time    0.0016: real time    0.0016
    --------------------------------------------
      LOOP:  cpu time    0.3819: real time    0.3862

 eigenvalue-minimisations  :   328
 total energy-change (2. order) : 0.1255357E-02  (-0.1121075E-02)
 number of electron      51.9999990 magnetization 
 augmentation part        1.5446058 magnetization 

 Broyden mixing:
  rms(total) = 0.24341E-01    rms(broyden)= 0.24341E-01
  rms(prec ) = 0.26573E-01
  weight for this iteration     100.00

 eigenvalues of (default mixing * dielectric matrix)
  average eigenvalue GAMMA=   1.1490
  2.2960  2.2960  1.2371  0.3490  0.7352  0.6060  0.5239

 Free energy of the ion-electron system (eV)
  ---------------------------------------------------
  alpha Z        PSCENC =       160.27286088
  Ewald energy   TEWEN  =     -3081.04276652
  -Hartree energ DENC   =     -1636.56194352
  -exchange      EXHF   =         0.00000000
  -V(xc)+E(xc)   XCENC  =       180.02521153
  PAW double counting   =      5614.93850043    -5571.98639725
  entropy T*S    EENTRO =        -0.00928119
  eigenvalues    EBANDS =      -537.58431841
  atomic energy  EATOM  =      4831.84262874
  Solvation  Ediel_sol  =         0.00000000
  ---------------------------------------------------
  free energy    TOTEN  =       -40.10550530 eV

  energy without entropy =      -40.09622412  energy(sigma->0) =      -40.10086471


--------------------------------------------------------------------------------------------------------




--------------------------------------- Iteration      1(  13)  ---------------------------------------


    POTLOK:  cpu time    0.0551: real time    0.0576
    SETDIJ:  cpu time    0.0053: real time    0.0053
     EDDAV:  cpu time    0.2693: real time    0.2694
       DOS:  cpu time    0.0005: real time    0.0005
    CHARGE:  cpu time    0.0321: real time    0.0321
    MIXING:  cpu time    0.0016: real time    0.0016
    --------------------------------------------
      LOOP:  cpu time    0.3639: real time    0.3665

 eigenvalue-minimisations  :   304
 total energy-change (2. order) : 0.7113932E-04  (-0.2945435E-03)
 number of electron      51.9999990 magnetization 
 augmentation part        1.5409033 magnetization 

 Broyden mixing:
  rms(total) = 0.11024E-01    rms(broyden)= 0.11024E-01
  rms(prec ) = 0.12091E-01
  weight for this iteration     100.00

 eigenvalues of (default mixing * dielectric matrix)
  average eigenvalue GAMMA=   1.1616
  2.4093  2.4093  1.0845  1.0027  0.9274  0.3490  0.5551  0.5551

 Free energy of the ion-electron system (eV)
  ---------------------------------------------------
  alpha Z        PSCENC =       160.27286088
  Ewald energy   TEWEN  =     -3081.04276652
  -Hartree energ DENC   =     -1636.85546398
  -exchange      EXHF   =         0.00000000
  -V(xc)+E(xc)   XCENC  =       180.03638751
  PAW double counting   =      5611.66378381    -5568.68567706
  entropy T*S    EENTRO =        -0.00914508
  eigenvalues    EBANDS =      -537.32804246
  atomic energy  EATOM  =      4831.84262874
  Solvation  Ediel_sol  =         0.00000000
  ---------------------------------------------------
  free energy    TOTEN  =       -40.10543416 eV

  energy without entropy =      -40.09628909  energy(sigma->0) =      -40.10086162


--------------------------------------------------------------------------------------------------------




--------------------------------------- Iteration      1(  14)  ---------------------------------------


    POTLOK:  cpu time    0.0549: real time    0.0575
    SETDIJ:  cpu time    0.0054: real time    0.0054
     EDDAV:  cpu time    0.2727: real time    0.2728
       DOS:  cpu time    0.0005: real time    0.0005
    CHARGE:  cpu time    0.0321: real time    0.0321
    MIXING:  cpu time    0.0017: real time    0.0017
    --------------------------------------------
      LOOP:  cpu time    0.3673: real time    0.3699

 eigenvalue-minimisations  :   312
 total energy-change (2. order) :-0.1371442E-04  (-0.4968602E-04)
 number of electron      51.9999990 magnetization 
 augmentation part        1.5414134 magnetization 

 Broyden mixing:
  rms(total) = 0.51954E-02    rms(broyden)= 0.51954E-02
  rms(prec ) = 0.55505E-02
  weight for this iteration     100.00

 eigenvalues of (default mixing * dielectric matrix)
  average eigenvalue GAMMA=   1.1548
  2.3728  2.3728  1.4383  0.9755  0.9755  0.3490  0.5438  0.5820  0.7839

 Free energy of the ion-electron system (eV)
  ---------------------------------------------------
  alpha Z        PSCENC =       160.27286088
  Ewald energy   TEWEN  =     -3081.04276652
  -Hartree energ DENC   =     -1636.88463981
  -exchange      EXHF   =         0.00000000
  -V(xc)+E(xc)   XCENC  =       180.03684560
  PAW double counting   =      5613.55595473    -5570.58138186
  entropy T*S    EENTRO =        -0.00915688
  eigenvalues    EBANDS =      -537.29579276
  atomic energy  EATOM  =      4831.84262874
  Solvation  Ediel_sol  =         0.00000000
  ---------------------------------------------------
  free energy    TOTEN  =       -40.10544788 eV

  energy without entropy =      -40.09629100  energy(sigma->0) =      -40.10086944


--------------------------------------------------------------------------------------------------------




--------------------------------------- Iteration      1(  15)  ---------------------------------------


    POTLOK:  cpu time    0.0548: real time    0.0574
    SETDIJ:  cpu time    0.0054: real time    0.0054
     EDDAV:  cpu time    0.2782: real time    0.2782
       DOS:  cpu time    0.0005: real time    0.0005
    CHARGE:  cpu time    0.0321: real time    0.0321
    MIXING:  cpu time    0.0017: real time    0.0017
    --------------------------------------------
      LOOP:  cpu time    0.3727: real time    0.3753

 eigenvalue-minimisations  :   320
 total energy-change (2. order) :-0.4250351E-05  (-0.6751133E-05)
 number of electron      51.9999990 magnetization 
 augmentation part        1.5422798 magnetization 

 Broyden mixing:
  rms(total) = 0.23985E-02    rms(broyden)= 0.23984E-02
  rms(prec ) = 0.29374E-02
  weight for this iteration     100.00

 eigenvalues of (default mixing * dielectric matrix)
  average eigenvalue GAMMA=   1.2043
  2.3506  2.3506  1.5952  1.5952  0.3490  0.9357  0.9357  0.5435  0.5777  0.8093

 Free energy of the ion-electron system (eV)
  ---------------------------------------------------
  alpha Z        PSCENC =       160.27286088
  Ewald energy   TEWEN  =     -3081.04276652
  -Hartree energ DENC   =     -1636.88121471
  -exchange      EXHF   =         0.00000000
  -V(xc)+E(xc)   XCENC  =       180.03712559
  PAW double counting   =      5613.63113843    -5570.65988528
  entropy T*S    EENTRO =        -0.00912718
  eigenvalues    EBANDS =      -537.29621207
  atomic energy  EATOM  =      4831.84262874
  Solvation  Ediel_sol  =         0.00000000
  ---------------------------------------------------
  free energy    TOTEN  =       -40.10545213 eV

  energy without entropy =      -40.09632495  energy(sigma->0) =      -40.10088854


--------------------------------------------------------------------------------------------------------




--------------------------------------- Iteration      1(  16)  ---------------------------------------


    POTLOK:  cpu time    0.0548: real time    0.0587
    SETDIJ:  cpu time    0.0053: real time    0.0054
     EDDAV:  cpu time    0.2863: real time    0.2867
       DOS:  cpu time    0.0007: real time    0.0007
    CHARGE:  cpu time    0.0323: real time    0.0323
    MIXING:  cpu time    0.0018: real time    0.0018
    --------------------------------------------
      LOOP:  cpu time    0.3812: real time    0.3856

 eigenvalue-minimisations  :   328
 total energy-change (2. order) :-0.4639789E-05  (-0.3497276E-05)
 number of electron      51.9999990 magnetization 
 augmentation part        1.5430419 magnetization 

 Broyden mixing:
  rms(total) = 0.87109E-03    rms(broyden)= 0.87107E-03
  rms(prec ) = 0.10846E-02
  weight for this iteration     100.00

 eigenvalues of (default mixing * dielectric matrix)
  average eigenvalue GAMMA=   1.2136
  2.4115  2.4115  1.9692  1.4984  0.3490  0.9765  0.9765  0.5420  0.5806  0.7902
  0.8441

 Free energy of the ion-electron system (eV)
  ---------------------------------------------------
  alpha Z        PSCENC =       160.27286088
  Ewald energy   TEWEN  =     -3081.04276652
  -Hartree energ DENC   =     -1636.88323984
  -exchange      EXHF   =         0.00000000
  -V(xc)+E(xc)   XCENC  =       180.03717578
  PAW double counting   =      5613.54399306    -5570.57427629
  entropy T*S    EENTRO =        -0.00909299
  eigenvalues    EBANDS =      -537.29273958
  atomic energy  EATOM  =      4831.84262874
  Solvation  Ediel_sol  =         0.00000000
  ---------------------------------------------------
  free energy    TOTEN  =       -40.10545677 eV

  energy without entropy =      -40.09636378  energy(sigma->0) =      -40.10091027


--------------------------------------------------------------------------------------------------------




--------------------------------------- Iteration      1(  17)  ---------------------------------------


    POTLOK:  cpu time    0.0549: real time    0.0581
    SETDIJ:  cpu time    0.0053: real time    0.0054
     EDDAV:  cpu time    0.2418: real time    0.2418
       DOS:  cpu time    0.0005: real time    0.0005
    CHARGE:  cpu time    0.0321: real time    0.0321
    MIXING:  cpu time    0.0018: real time    0.0018
    --------------------------------------------
      LOOP:  cpu time    0.3365: real time    0.3398

 eigenvalue-minimisations  :   264
 total energy-change (2. order) :-0.1595542E-05  (-0.3302191E-06)
 number of electron      51.9999990 magnetization 
 augmentation part        1.5430316 magnetization 

 Broyden mixing:
  rms(total) = 0.39822E-03    rms(broyden)= 0.39822E-03
  rms(prec ) = 0.43613E-03
  weight for this iteration     100.00

 eigenvalues of (default mixing * dielectric matrix)
  average eigenvalue GAMMA=   1.2388
  2.5102  2.5102  2.1676  1.3037  1.3037  0.3490  1.0761  0.5422  0.5799  0.8686
  0.8686  0.7858

 Free energy of the ion-electron system (eV)
  ---------------------------------------------------
  alpha Z        PSCENC =       160.27286088
  Ewald energy   TEWEN  =     -3081.04276652
  -Hartree energ DENC   =     -1636.89142325
  -exchange      EXHF   =         0.00000000
  -V(xc)+E(xc)   XCENC  =       180.03761969
  PAW double counting   =      5613.33814796    -5570.36783008
  entropy T*S    EENTRO =        -0.00909815
  eigenvalues    EBANDS =      -537.28559764
  atomic energy  EATOM  =      4831.84262874
  Solvation  Ediel_sol  =         0.00000000
  ---------------------------------------------------
  free energy    TOTEN  =       -40.10545836 eV

  energy without entropy =      -40.09636022  energy(sigma->0) =      -40.10090929


--------------------------------------------------------------------------------------------------------




--------------------------------------- Iteration      1(  18)  ---------------------------------------


    POTLOK:  cpu time    0.0548: real time    0.0590
    SETDIJ:  cpu time    0.0054: real time    0.0054
     EDDAV:  cpu time    0.2194: real time    0.2195
       DOS:  cpu time    0.0005: real time    0.0005
    --------------------------------------------
      LOOP:  cpu time    0.2801: real time    0.2843

 eigenvalue-minimisations  :   224
 total energy-change (2. order) :-0.5366901E-06  (-0.7418293E-07)
 number of electron      51.9999990 magnetization 
 augmentation part        1.5430316 magnetization 

 Free energy of the ion-electron system (eV)
  ---------------------------------------------------
  alpha Z        PSCENC =       160.27286088
  Ewald energy   TEWEN  =     -3081.04276652
  -Hartree energ DENC   =     -1636.89821384
  -exchange      EXHF   =         0.00000000
  -V(xc)+E(xc)   XCENC  =       180.03788503
  PAW double counting   =      5613.24068055    -5570.26998545
  entropy T*S    EENTRO =        -0.00909894
  eigenvalues    EBANDS =      -537.27944935
  atomic energy  EATOM  =      4831.84262874
  Solvation  Ediel_sol  =         0.00000000
  ---------------------------------------------------
  free energy    TOTEN  =       -40.10545890 eV

  energy without entropy =      -40.09635996  energy(sigma->0) =      -40.10090943


--------------------------------------------------------------------------------------------------------




 average (electrostatic) potential at core
  the test charge radii are     1.0818  0.9698
  (the norm of the test charge is              1.0000)
       1 -75.9999       2 -75.6485       3 -85.7398       4 -86.3183       5 -85.5520
       6 -85.7425
 
 
 
 E-fermi :   6.0837     XC(G=0): -10.3725     alpha+bet :-12.2268

 Fermi energy:         6.0836576071

 k-point     1 :       0.2500    0.2500    0.0000
  band No.  band energies     occupation 
      1     -55.2199      2.00000
      2     -54.8221      2.00000
      3     -29.4707      2.00000
      4     -29.3856      2.00000
      5     -29.3213      2.00000
      6     -29.0009      2.00000
      7     -28.9158      2.00000
      8     -28.8432      2.00000
      9      -7.5602      2.00000
     10      -6.5427      2.00000
     11      -6.2122      2.00000
     12      -5.1718      2.00000
     13       0.1882      2.00000
     14       0.5756      2.00000
     15       0.9236      2.00000
     16       1.2037      2.00000
     17       1.9307      2.00000
     18       2.3946      2.00000
     19       2.5552      2.00000
     20       2.9150      2.00000
     21       3.1163      2.00000
     22       3.4048      2.00000
     23       4.4147      2.00000
     24       5.0339      2.00000
     25       5.3299      2.00000
     26       5.7263      2.00000
     27       5.8410      2.00000
     28       7.7761      0.00000
     29       8.0770      0.00000
     30       8.3119      0.00000
     31       8.5683      0.00000
     32       9.0763      0.00000

 k-point     2 :      -0.2500    0.5000    0.0000
  band No.  band energies     occupation 
      1     -55.2199      2.00000
      2     -54.8221      2.00000
      3     -29.4676      2.00000
      4     -29.3837      2.00000
      5     -29.3264      2.00000
      6     -29.0287      2.00000
      7     -28.8851      2.00000
      8     -28.8462      2.00000
      9      -7.5517      2.00000
     10      -6.5415      2.00000
     11      -6.2122      2.00000
     12      -5.1816      2.00000
     13       0.1784      2.00000
     14       0.5315      2.00000
     15       0.9364      2.00000
     16       1.2177      2.00000
     17       1.9488      2.00000
     18       2.4344      2.00000
     19       2.4962      2.00000
     20       2.9447      2.00000
     21       3.0874      2.00000
     22       3.4299      2.00000
     23       4.5327      2.00000
     24       4.9839      2.00000
     25       5.2596      2.00000
     26       5.5782      2.00000
     27       6.0410      1.77189
     28       7.7965      0.00000
     29       7.9557      0.00000
     30       8.3815      0.00000
     31       8.6125      0.00000
     32       8.8425      0.00000

 k-point     3 :      -0.2500    0.2500    0.0000
  band No.  band energies     occupation 
      1     -55.2379      2.00000
      2     -54.8387      2.00000
      3     -29.4219      2.00000
      4     -29.3521      2.00000
      5     -29.2180      2.00000
      6     -28.9411      2.00000
      7     -28.8704      2.00000
      8     -28.7779      2.00000
      9      -8.3771      2.00000
     10      -7.2127      2.00000
     11      -6.9367      2.00000
     12      -5.8850      2.00000
     13       0.0558      2.00000
     14       1.1492      2.00000
     15       1.5992      2.00000
     16       1.9398      2.00000
     17       2.4923      2.00000
     18       2.9218      2.00000
     19       3.0776      2.00000
     20       3.6897      2.00000
     21       3.9081      2.00000
     22       4.2456      2.00000
     23       4.6806      2.00000
     24       5.1858      2.00000
     25       5.7149      2.00000
     26       6.2175      0.00015
     27       6.3428      0.00000
     28       6.9444      0.00000
     29       7.8705      0.00000
     30       7.9364      0.00000
     31       8.2678      0.00000
     32       9.1347      0.00000

 k-point     4 :      -0.2500    0.0000    0.0000
  band No.  band energies     occupation 
      1     -55.2379      2.00000
      2     -54.8387      2.00000
      3     -29.4212      2.00000
      4     -29.3574      2.00000
      5     -29.2134      2.00000
      6     -28.9192      2.00000
      7     -28.8713      2.00000
      8     -28.7989      2.00000
      9      -8.3815      2.00000
     10      -7.2155      2.00000
     11      -6.9372      2.00000
     12      -5.8786      2.00000
     13       0.0493      2.00000
     14       1.2468      2.00000
     15       1.5817      2.00000
     16       1.9325      2.00000
     17       2.4522      2.00000
     18       2.8763      2.00000
     19       3.0088      2.00000
     20       3.6899      2.00000
     21       3.8976      2.00000
     22       4.3539      2.00000
     23       4.6852      2.00000
     24       5.1996      2.00000
     25       5.6949      2.00000
     26       6.1263      0.22803
     27       6.4869      0.00000
     28       6.9236      0.00000
     29       7.8592      0.00000
     30       7.9272      0.00000
     31       8.3798      0.00000
     32       8.9742      0.00000


--------------------------------------------------------------------------------------------------------


 soft charge-density along one line, spin component           1
         0         1         2         3         4         5         6         7         8         9
 total charge-density along one line
 
 pseudopotential strength for first ion, spin component:           1
 -5.037  11.463  -0.001  -0.004  -0.000   0.001   0.003   0.000
 11.463   3.262   0.001   0.003   0.000  -0.000   0.001  -0.000
 -0.001   0.001 -18.153   0.002  -0.000   8.991  -0.003   0.000
 -0.004   0.003   0.002 -18.163   0.000  -0.003   9.006  -0.000
 -0.000   0.000  -0.000   0.000 -18.154   0.000  -0.000   8.993
  0.001  -0.000   8.991  -0.003   0.000   5.707   0.001  -0.000
  0.003   0.001  -0.003   9.006  -0.000   0.001   5.699   0.000
  0.000  -0.000   0.000  -0.000   8.993  -0.000   0.000   5.707
 -0.000   0.000  -0.000   0.000   0.006   0.000  -0.000  -0.003
  0.003  -0.002  -0.004  -0.001   0.000   0.002   0.001  -0.000
 -0.007   0.005   0.000  -0.003   0.000  -0.000   0.001  -0.000
  0.000  -0.000   0.000  -0.000  -0.004  -0.000   0.000   0.002
 -0.001   0.000   0.008   0.000  -0.000  -0.004  -0.000   0.000
 -0.000   0.000  -0.000   0.000   0.007   0.000  -0.000  -0.003
  0.003  -0.002  -0.005  -0.001   0.000   0.002   0.001  -0.000
 -0.007   0.005   0.000  -0.003   0.000  -0.000   0.001  -0.000
  0.000  -0.000   0.000  -0.000  -0.004  -0.000   0.000   0.002
 -0.001   0.000   0.009   0.000  -0.000  -0.004  -0.000   0.000
 total augmentation occupancy for first ion, spin component:           1
  1.995  -0.040  -0.000   0.000   0.000  -0.000   0.001   0.000   0.000  -0.006   0.016   0.000   0.001   0.000   0.005  -0.015
 -0.040   1.215   0.000   0.006   0.000  -0.000  -0.014   0.000   0.000   0.022  -0.174   0.000  -0.017   0.000  -0.014   0.194
 -0.000   0.000   1.998  -0.000   0.000  -0.041   0.000   0.000   0.000  -0.001  -0.001   0.000   0.008   0.000   0.003   0.001
  0.000   0.006  -0.000   1.998   0.000   0.000  -0.048   0.000   0.000   0.001   0.003   0.000   0.001   0.000  -0.001  -0.000
  0.000   0.000   0.000   0.000   1.998   0.000   0.000  -0.041   0.010   0.000   0.000   0.000   0.000   0.000   0.000   0.000
 -0.000  -0.000  -0.041   0.000   0.000   0.090  -0.000   0.000   0.000  -0.003   0.001   0.000   0.185   0.000  -0.000  -0.001
  0.001  -0.014   0.000  -0.048   0.000  -0.000   0.119   0.000   0.000   0.006  -0.033   0.000  -0.007   0.000  -0.004   0.021
  0.000   0.000   0.000   0.000  -0.041   0.000   0.000   0.090   0.189   0.000   0.000  -0.010   0.000  -0.213   0.000   0.000
  0.000   0.000   0.000   0.000   0.010   0.000   0.000   0.189   2.508   0.000   0.000  -0.143   0.000  -2.827   0.000   0.000
 -0.006   0.022  -0.001   0.001   0.000  -0.003   0.006   0.000   0.000   4.217   0.029   0.000  -0.180   0.000  -5.097  -0.014
  0.016  -0.174  -0.001   0.003   0.000   0.001  -0.033   0.000   0.000   0.029   1.538   0.000  -0.029   0.000  -0.013  -1.696
  0.000   0.000   0.000   0.000   0.000   0.000   0.000  -0.010  -0.143   0.000   0.000   4.170   0.000   0.092   0.000   0.000
  0.001  -0.017   0.008   0.001   0.000   0.185  -0.007   0.000   0.000  -0.180  -0.029   0.000   2.536   0.000   0.108   0.011
  0.000   0.000   0.000   0.000   0.000   0.000   0.000  -0.213  -2.827   0.000   0.000   0.092   0.000   3.964   0.000   0.000
  0.005  -0.014   0.003  -0.001   0.000  -0.000  -0.004   0.000   0.000  -5.097  -0.013   0.000   0.108   0.000   6.611   0.005
 -0.015   0.194   0.001  -0.000   0.000  -0.001   0.021   0.000   0.000  -0.014  -1.696   0.000   0.011   0.000   0.005   2.719
  0.000   0.000   0.000   0.000   0.002   0.000   0.000   0.005   0.093   0.000   0.000  -5.095   0.000  -0.049   0.000   0.000
 -0.001   0.009   0.002  -0.001   0.000  -0.211   0.004   0.000   0.000   0.109   0.011   0.000  -2.843   0.000  -0.057  -0.001


------------------------ aborting loop because EDIFF is reached ----------------------------------------


    CHARGE:  cpu time    0.0320: real time    0.0320
    FORLOC:  cpu time    0.0047: real time    0.0047
    FORNL :  cpu time    0.0542: real time    0.0542
    STRESS:  cpu time    0.1215: real time    0.1215
    FORCOR:  cpu time    0.0588: real time    0.0588
    FORHAR:  cpu time    0.0146: real time    0.0146
    MIXING:  cpu time    0.0019: real time    0.0019
    OFIELD:  cpu time    0.0000: real time    0.0000

 ---------------------------------------------------------------------------------------------

         DFTD3 V3.0 Rev 1        
 IVDW         = 12
 DF pbe       
 parameters
 VDW_S6       =    1.0000
 VDW_S8       =    0.7875
 VDW_A1       =    0.4289
 VDW_A2       =    4.4407
 k1-k3        =   16.0000    1.3333   -4.0000
 VDW_RADIUS   =   50.2022 A
 VDW_CNRADIUS =   21.1671 A
 Edisp (eV)   -2.32436

 E6    (eV) :    -1.3835
 E8    (eV) :    -0.9409
 % E8        : 40.48
    FORVDW:  cpu time    0.0379: real time    0.0516

  FORCE on cell =-STRESS in cart. coord.  units (eV):
  Direction    XX          YY          ZZ          XY          YZ          ZX
  --------------------------------------------------------------------------------------
  Alpha Z   160.27286   160.27286   160.27286
  Ewald    -364.84187  -361.05018 -2355.15363     0.00000    -0.28950    -0.00000
  Hartree  1116.22165  1116.65243  -595.97666     0.00000    -1.55329    -0.00000
  E(xc)    -217.87662  -217.87503  -217.69872     0.00000     0.06266    -0.00000
  Local   -1759.20458 -1762.16236  1949.61279     0.00000     3.66407    -0.00000
  n-local   236.78025   236.76991   239.02551    -4.41547    -1.44101    -0.28500
  augment    -2.56552    -2.73603    -2.52769     0.00000     0.51910    -0.00000
  Kinetic   825.54055   825.43300   819.43261   -10.66656    -0.10553     0.81869
  Fock        0.00000     0.00000     0.00000     0.00000     0.00000     0.00000
  vdW        -2.39980    -2.39797    -2.34190    -0.00000     0.00219     0.00000
  -------------------------------------------------------------------------------------
  Total      -8.07307    -7.09337    -5.35483     0.00000     0.85868     0.00000
  in kB    -109.55387   -96.25903   -72.66655     0.00000    11.65251     0.00000
  external pressure =      -92.83 kB  Pullay stress =        0.00 kB


 VOLUME and BASIS-vectors are now :
 -----------------------------------------------------------------------------
  energy-cutoff  :      500.00
  volume of cell :      118.07
      direct lattice vectors                 reciprocal lattice vectors
     1.596118927 -2.764559076  0.000000000     0.313259865 -0.180860668  0.000000000
     1.596118927  2.764559076  0.000000000     0.313259865  0.180860668  0.000000000
     0.000000000  0.000000000 13.378293991     0.000000000  0.000000000  0.074747946

  length of vectors
     3.192237854  3.192237854 13.378293991     0.361721335  0.361721335  0.074747946


 FORCES acting on ions
    electron-ion (+dipol)            ewald-force                    non-local-force                 convergence-correction
 -----------------------------------------------------------------------------------------------
   -.712E-08 -.177E+00 0.155E+03   -.460E-13 0.865E-01 -.156E+03   0.000E+00 -.693E-02 0.130E+01   -.142E-13 0.270E-04 -.524E-02
   -.176E-07 0.413E+01 0.875E+02   -.913E-14 -.363E+01 -.837E+02   0.000E+00 -.539E+00 -.396E+01   0.296E-13 -.629E-04 0.640E-02
   0.980E-08 -.527E+01 -.328E+02   0.157E-14 0.782E+01 0.338E+02   0.000E+00 -.213E+01 0.149E+01   0.681E-14 0.587E-04 0.251E-02
   -.157E-07 0.377E+01 -.342E+03   0.133E-13 -.429E+01 0.342E+03   0.000E+00 0.270E+00 -.139E+01   0.105E-13 0.304E-04 -.174E-02
   -.923E-07 0.209E+00 -.345E+03   -.464E-14 0.137E-01 0.350E+03   0.555E-16 -.233E+00 -.594E+01   -.913E-15 -.299E-04 0.630E-03
   0.726E-07 -.580E-01 0.481E+03   0.150E-13 -.340E-02 -.486E+03   -.278E-16 0.465E-01 0.534E+01   -.153E-14 -.552E-05 -.310E-02
 -----------------------------------------------------------------------------------------------
   -.504E-07 0.260E+01 0.317E+01   -.299E-13 0.664E-14 -.171E-12   0.278E-16 -.260E+01 -.317E+01   0.303E-13 0.178E-04 -.547E-03
 
 
 POSITION                                       TOTAL-FORCE (eV/Angst)
 -----------------------------------------------------------------------------------
      1.59612     -0.92152      3.34457         0.000000     -0.097197     -0.057845
      1.59612      0.92152     10.03372         0.000000     -0.036416     -0.165581
      1.59612      1.29139      7.25203         0.000000      0.414260      2.423806
      1.59612      0.92152      4.90874         0.000000     -0.254787     -1.249589
      1.59612     -0.92152     11.59788         0.000000     -0.010951     -1.140742
      1.59612      0.92152      1.78041         0.000000     -0.014910      0.189950
 -----------------------------------------------------------------------------------
    total drift:                               -0.000000     -0.000137     -0.000004


--------------------------------------------------------------------------------------------------------



  FREE ENERGIE OF THE ION-ELECTRON SYSTEM (eV)
  ---------------------------------------------------
  free  energy   TOTEN  =       -42.42981945 eV

  energy  without entropy=      -42.42072051  energy(sigma->0) =      -42.42526998
 


--------------------------------------------------------------------------------------------------------


    POTLOK:  cpu time    0.0602: real time    0.0602


--------------------------------------------------------------------------------------------------------


 stress matrix after NEB project (eV)
     -8.07307      0.00000      0.00000
      0.00000     -7.09337      0.85868
      0.00000      0.85868     -5.35483
  FORCES: max atom, RMS     2.458953    1.228284
  FORCE total and by dimension    3.008669    2.423806
  Stress total and by dimension   12.068113    8.073075
 writing wavefunctions
     LOOP+:  cpu time    7.4546: real time    7.5802
    4ORBIT:  cpu time    0.0000: real time    0.0000

 total amount of memory used by VASP MPI-rank0    37866. kBytes
=======================================================================

   base      :      30000. kBytes
   nonl-proj :        950. kBytes
   fftplans  :       2329. kBytes
   grid      :       3750. kBytes
   one-center:         31. kBytes
   wavefun   :        806. kBytes
 
  
  
 General timing and accounting informations for this job:
 ========================================================
  
                  Total CPU time used (sec):        9.047
                            User time (sec):        8.199
                          System time (sec):        0.848
                         Elapsed time (sec):        9.936
  
                   Maximum memory used (kb):      135544.
                   Average memory used (kb):          N/A
  
                          Minor page faults:        24141
                          Major page faults:           90
                 Voluntary context switches:         1138
