 vasp.6.2.0 18Jan21 (build Jul 31 2023 14:19:35) complex                        
  
 executed on             LinuxIFC date 2025.09.17  12:28:56
 running on    8 total cores
 distrk:  each k-point on    8 cores,    1 groups
 distr:  one band on NCORE=   4 cores,    2 groups


--------------------------------------------------------------------------------------------------------


 INCAR:
   SYSTEM = MoS2_SinglePoint_vdW_Coulomb
   PREC = Accurate
   ENCUT = 500
   GGA = PE
   ALGO = Normal
   NELM = 100
   NELMIN = 5
   EDIFF = 1E-6
   ISMEAR = 0
   SIGMA = 0.05
   IBRION = -1
   NSW = 0
   IVDW = 12
   LREAL = .FALSE.
   LCHARG = .TRUE.
   LWAVE = .TRUE.
   NWRITE = 1
   NCORE = 4

 POTCAR:    PAW_PBE Mo_sv 02Feb2006               
 POTCAR:    PAW_PBE S 06Sep2000                   
 POTCAR:    PAW_PBE Mo_sv 02Feb2006               
  local pseudopotential read in
  partial core-charges read in
  partial kinetic energy density read in
  atomic valenz-charges read in
  non local Contribution for L=           0  read in
    real space projection operators read in
  non local Contribution for L=           0  read in
    real space projection operators read in
  non local Contribution for L=           1  read in
    real space projection operators read in
  non local Contribution for L=           1  read in
    real space projection operators read in
  non local Contribution for L=           2  read in
    real space projection operators read in
  non local Contribution for L=           2  read in
    real space projection operators read in
    PAW grid and wavefunctions read in
 
   number of l-projection  operators is LMAX  =           6
   number of lm-projection operators is LMMAX =          18
 
 POTCAR:    PAW_PBE S 06Sep2000                   
  local pseudopotential read in
  partial core-charges read in
  partial kinetic energy density read in
  atomic valenz-charges read in
  non local Contribution for L=           0  read in
    real space projection operators read in
  non local Contribution for L=           0  read in
    real space projection operators read in
  non local Contribution for L=           1  read in
    real space projection operators read in
  non local Contribution for L=           1  read in
    real space projection operators read in
    PAW grid and wavefunctions read in
 
   number of l-projection  operators is LMAX  =           4
   number of lm-projection operators is LMMAX =           8
 
  PAW_PBE Mo_sv 02Feb2006               :
 energy of atom  1       EATOM=-1862.2866
 kinetic energy error for atom=    0.0074 (will be added to EATOM!!)
  PAW_PBE S 06Sep2000                   :
 energy of atom  2       EATOM= -276.8230
 kinetic energy error for atom=    0.0020 (will be added to EATOM!!)
 
 
 POSCAR: Mo S
  positions in direct lattice
  No initial velocities read in
 exchange correlation table for  LEXCH =        8
   RHO(1)=    0.500       N(1)  =     2000
   RHO(2)=  100.500       N(2)  =     4000

 VTST: version 4.0, (05/15/20)

 CHAIN: initializing optimizer
 
 OPT: Using VASP Dynamics algorithm
 CHAIN: Read ICHAIN            0
 
 POSCAR: Mo S
  positions in direct lattice
  No initial velocities read in
 


--------------------------------------------------------------------------------------------------------


 ion  position               nearest neighbor table
   1  0.667  0.333  0.250-   4 2.28   6 2.42   6 2.42   4 2.42   6 2.42   4 2.59
   2  0.333  0.667  0.750-   3 2.42   5 2.42   3 2.42   5 2.42   3 2.42   5 2.42
   3  0.667  0.333  0.633-   2 2.42   2 2.42   2 2.42
   4  0.411  0.737  0.367-   1 2.28   1 2.42   1 2.59
   5  0.667  0.333  0.867-   2 2.42   2 2.42   2 2.42
   6  0.333  0.667  0.133-   1 2.42   1 2.42   1 2.42
 
  LATTYP: Found a hexagonal cell.
 ALAT       =     3.1922378540
 C/A-ratio  =     4.1908825730
  
  Lattice vectors:
  
 A1 = (   1.5961189270,  -2.7645590765,   0.0000000000)
 A2 = (   1.5961189270,   2.7645590765,   0.0000000000)
 A3 = (   0.0000000000,   0.0000000000,  13.3782939911)


Analysis of symmetry for initial positions (statically):
=====================================================================
 Subroutine PRICEL returns:
 Original cell was already a primitive cell.
 

 Routine SETGRP: Setting up the symmetry group for a 
 hexagonal supercell.


 Subroutine GETGRP returns: Found  1 space group operations
 (whereof  1 operations were pure point group operations)
 out of a pool of 24 trial point group operations.


The static configuration has the point symmetry C_1 .


Analysis of symmetry for dynamics (positions and initial velocities):
=====================================================================
 Subroutine PRICEL returns:
 Original cell was already a primitive cell.
 

 Routine SETGRP: Setting up the symmetry group for a 
 hexagonal supercell.


 Subroutine GETGRP returns: Found  1 space group operations
 (whereof  1 operations were pure point group operations)
 out of a pool of 24 trial point group operations.


The dynamic configuration has the point symmetry C_1 .


 Subroutine INISYM returns: Found  1 space group operations
 (whereof  1 operations are pure point group operations),
 and found     1 'primitive' translations


----------------------------------------------------------------------------------------

                                     Primitive cell                                     

  volume of cell :     118.0652

  direct lattice vectors                    reciprocal lattice vectors
     1.596118927 -2.764559076  0.000000000     0.313259865 -0.180860668  0.000000000
     1.596118927  2.764559076  0.000000000     0.313259865  0.180860668  0.000000000
     0.000000000  0.000000000 13.378293991     0.000000000  0.000000000  0.074747946

  length of vectors
     3.192237854  3.192237854 13.378293991     0.361721335  0.361721335  0.074747946

  position of ions in fractional coordinates (direct lattice)
     0.666666667  0.333333333  0.250000000
     0.333333333  0.666666667  0.750000000
     0.666666667  0.333333333  0.633082000
     0.410992438  0.737113460  0.367328642
     0.666666667  0.333333333  0.866918000
     0.333333333  0.666666667  0.133082000

  ion indices of the primitive-cell ions
   primitive index   ion index
                 1           1
                 2           2
                 3           3
                 4           4
                 5           5
                 6           6

----------------------------------------------------------------------------------------

 
 
 KPOINTS: K-Spacing Value to Generate K-Mesh: 0.15

Automatic generation of k-mesh.
 Grid dimensions read from file:
 generate k-points for:    2    2    1

 Generating k-lattice:

  Cartesian coordinates                     Fractional coordinates (reciprocal lattice)
     0.156629933 -0.090430334  0.000000000     0.500000000  0.000000000  0.000000000
     0.156629933  0.090430334  0.000000000     0.000000000  0.500000000  0.000000000
     0.000000000  0.000000000  0.074747946     0.000000000  0.000000000  1.000000000

  Length of vectors
     0.180860668  0.180860668  0.074747946

  Shift w.r.t. Gamma in fractional coordinates (k-lattice)
     0.500000000  0.500000000  0.000000000

 
 Subroutine IBZKPT returns following result:
 ===========================================
 
 Found      6 irreducible k-points:
 
 Following reciprocal coordinates:
            Coordinates               Weight
  0.250000  0.250000  0.000000      2.000000
 -0.250000  0.500000  0.000000      2.000000
  0.500000  0.250000  0.000000      2.000000
 -0.250000  0.250000  0.000000      2.000000
 -0.250000  0.000000  0.000000      2.000000
  0.000000 -0.250000  0.000000      2.000000
 
 Following cartesian coordinates:
            Coordinates               Weight
  0.156630  0.000000  0.000000      2.000000
  0.078315  0.135646  0.000000      2.000000
  0.234945 -0.045215  0.000000      2.000000
  0.000000  0.090430  0.000000      2.000000
 -0.078315  0.045215  0.000000      2.000000
 -0.078315 -0.045215  0.000000      2.000000
 


--------------------------------------------------------------------------------------------------------




 Dimension of arrays:
   k-points           NKPTS =      6   k-points in BZ     NKDIM =      6   number of bands    NBANDS=     32
   number of dos      NEDOS =    301   number of ions     NIONS =      6
   non local maximal  LDIM  =      6   non local SUM 2l+1 LMDIM =     18
   total plane-waves  NPLWV =  56448
   max r-space proj   IRMAX =      1   max aug-charges    IRDMAX=  21106
   dimension x,y,z NGX =    24 NGY =   24 NGZ =   98
   dimension x,y,z NGXF=    48 NGYF=   48 NGZF=  196
   support grid    NGXF=    48 NGYF=   48 NGZF=  196
   ions per type =               2   4
   NGX,Y,Z   is equivalent  to a cutoff of  12.50, 12.50, 12.18 a.u.
   NGXF,Y,Z  is equivalent  to a cutoff of  25.00, 25.00, 24.36 a.u.

 SYSTEM =  MoS2_SinglePoint_vdW_Coulomb           
 POSCAR =  Mo S                                    

 Startparameter for this run:
   NWRITE =      1    write-flag & timer
   PREC   = accura    normal or accurate (medium, high low for compatibility)
   ISTART =      0    job   : 0-new  1-cont  2-samecut
   ICHARG =      2    charge: 1-file 2-atom 10-const
   ISPIN  =      1    spin polarized calculation?
   LNONCOLLINEAR =      F non collinear calculations
   LSORBIT =      F    spin-orbit coupling
   INIWAV =      1    electr: 0-lowe 1-rand  2-diag
   LASPH  =      F    aspherical Exc in radial PAW
   METAGGA=      F    non-selfconsistent MetaGGA calc.

 Electronic Relaxation 1
   ENCUT  =  500.0 eV  36.75 Ry    6.06 a.u.   5.82  5.82 24.39*2*pi/ulx,y,z
   ENINI  =  500.0     initial cutoff
   ENAUG  =  446.0 eV  augmentation charge cutoff
   NELM   =    100;   NELMIN=  5; NELMDL= -5     # of ELM steps 
   EDIFF  = 0.1E-05   stopping-criterion for ELM
   LREAL  =      F    real-space projection
   NLSPLINE    = F    spline interpolate recip. space projectors
   LCOMPAT=      F    compatible to vasp.4.4
   GGA_COMPAT  = T    GGA compatible to vasp.4.4-vasp.4.6
   LMAXPAW     = -100 max onsite density
   LMAXMIX     =    2 max onsite mixed and CHGCAR
   VOSKOWN=      0    Vosko Wilk Nusair interpolation
   ROPT   =    0.00000   0.00000
 Ionic relaxation
   EDIFFG = 0.1E-04   stopping-criterion for IOM
   NSW    =      0    number of steps for IOM
   NBLOCK =      1;   KBLOCK =      1    inner block; outer block 
   IBRION =     -1    ionic relax: 0-MD 1-quasi-New 2-CG
   NFREE  =      0    steps in history (QN), initial steepest desc. (CG)
   ISIF   =      2    stress and relaxation
   IWAVPR =     10    prediction:  0-non 1-charg 2-wave 3-comb
   ISYM   =      2    0-nonsym 1-usesym 2-fastsym
   LCORR  =      T    Harris-Foulkes like correction to forces

   POTIM  = 0.5000    time-step for ionic-motion
   TEIN   =    0.0    initial temperature
   TEBEG  =    0.0;   TEEND  =   0.0 temperature during run
   SMASS  =  -3.00    Nose mass-parameter (am)
   estimated Nose-frequenzy (Omega)   =  0.10E-29 period in steps = 0.13E+47 mass=  -0.233E-27a.u.
   SCALEE = 1.0000    scale energy and forces
   NPACO  =    256;   APACO  = 16.0  distance and # of slots for P.C.
   PSTRESS=    0.0 pullay stress

  Mass of Ions in am
   POMASS =  95.94 32.07
  Ionic Valenz
   ZVAL   =  14.00  6.00
  Atomic Wigner-Seitz radii
   RWIGS  =  -1.00 -1.00
  virtual crystal weights 
   VCA    =   1.00  1.00
   NELECT =      52.0000    total number of electrons
   NUPDOWN=      -1.0000    fix difference up-down

 DOS related values:
   EMIN   =  10.00;   EMAX   =-10.00  energy-range for DOS
   EFERMI =   0.00
   ISMEAR =     0;   SIGMA  =   0.05  broadening in eV -4-tet -1-fermi 0-gaus

 Electronic relaxation 2 (details)
   IALGO  =     38    algorithm
   LDIAG  =      T    sub-space diagonalisation (order eigenvalues)
   LSUBROT=      F    optimize rotation matrix (better conditioning)
   TURBO    =      0    0=normal 1=particle mesh
   IRESTART =      0    0=no restart 2=restart with 2 vectors
   NREBOOT  =      0    no. of reboots
   NMIN     =      0    reboot dimension
   EREF     =   0.00    reference energy to select bands
   IMIX   =      4    mixing-type and parameters
     AMIX     =   0.40;   BMIX     =  1.00
     AMIX_MAG =   1.60;   BMIX_MAG =  1.00
     AMIN     =   0.10
     WC   =   100.;   INIMIX=   1;  MIXPRE=   1;  MAXMIX= -45

 Intra band minimization:
   WEIMIN = 0.0000     energy-eigenvalue tresh-hold
   EBREAK =  0.78E-08  absolut break condition
   DEPER  =   0.30     relativ break condition  

   TIME   =   0.40     timestep for ELM

  volume/ion in A,a.u.               =      19.68       132.79
  Fermi-wavevector in a.u.,A,eV,Ry     =   1.245571  2.353789 21.108736  1.551448
  Thomas-Fermi vector in A             =   2.379788
 
 Write flags
   LWAVE        =      T    write WAVECAR
   LDOWNSAMPLE  =      F    k-point downsampling of WAVECAR
   LCHARG       =      T    write CHGCAR
   LVTOT        =      F    write LOCPOT, total local potential
   LVHAR        =      F    write LOCPOT, Hartree potential only
   LELF         =      F    write electronic localiz. function (ELF)
   LORBIT       =      0    0 simple, 1 ext, 2 COOP (PROOUT), +10 PAW based schemes


 Dipole corrections
   LMONO  =      F    monopole corrections only (constant potential shift)
   LDIPOL =      F    correct potential (dipole corrections)
   IDIPOL =      0    1-x, 2-y, 3-z, 4-all directions 
   EPSILON=  1.0000000 bulk dielectric constant

 Exchange correlation treatment:
   GGA     =    PE    GGA type
   LEXCH   =     8    internal setting for exchange type
   VOSKOWN=      0    Vosko Wilk Nusair interpolation
   LHFCALC =     F    Hartree Fock is set to
   LHFONE  =     F    Hartree Fock one center treatment
   AEXX    =    0.0000 exact exchange contribution

 Linear response parameters
   LEPSILON=     F    determine dielectric tensor
   LRPA    =     F    only Hartree local field effects (RPA)
   LNABLA  =     F    use nabla operator in PAW spheres
   LVEL    =     F    velocity operator in full k-point grid
   LINTERFAST=   F  fast interpolation
   KINTER  =     0    interpolate to denser k-point grid
   CSHIFT  =0.1000    complex shift for real part using Kramers Kronig
   OMEGAMAX=  -1.0    maximum frequency
   DEG_THRESHOLD= 0.2000000E-02 threshold for treating states as degnerate
   RTIME   =   -0.100 relaxation time in fs
  (WPLASMAI=    0.000 imaginary part of plasma frequency in eV, 0.658/RTIME)
   DFIELD  = 0.0000000 0.0000000 0.0000000 field for delta impulse in time
 
 Orbital magnetization related:
   ORBITALMAG=     F  switch on orbital magnetization
   LCHIMAG   =     F  perturbation theory with respect to B field
   DQ        =  0.001000  dq finite difference perturbation B field
   LLRAUG    =     F  two centre corrections for induced B field



--------------------------------------------------------------------------------------------------------


 Static calculation
 charge density and potential will be updated during run
 non-spin polarized calculation
 Variant of blocked Davidson
 Davidson routine will perform the subspace rotation
 perform sub-space diagonalisation
    after iterative eigenvector-optimisation
 modified Broyden-mixing scheme, WC =      100.0
 initial mixing is a Kerker type mixing with AMIX =  0.4000 and BMIX =      1.0000
 Hartree-type preconditioning will be used
 using additional bands            6
 reciprocal scheme for non local part
 use partial core corrections
 calculate Harris-corrections to forces 
   (improved forces if not selfconsistent)
 use gradient corrections 
 use of overlap-Matrix (Vanderbilt PP)
 Gauss-broadening in eV      SIGMA  =   0.05


--------------------------------------------------------------------------------------------------------


  energy-cutoff  :      500.00
  volume of cell :      118.07
      direct lattice vectors                 reciprocal lattice vectors
     1.596118927 -2.764559076  0.000000000     0.313259865 -0.180860668  0.000000000
     1.596118927  2.764559076  0.000000000     0.313259865  0.180860668  0.000000000
     0.000000000  0.000000000 13.378293991     0.000000000  0.000000000  0.074747946

  length of vectors
     3.192237854  3.192237854 13.378293991     0.361721335  0.361721335  0.074747946


 
 k-points in units of 2pi/SCALE and weight: K-Spacing Value to Generate K-Mesh: 0.15
   0.15662993  0.00000000  0.00000000       0.167
   0.07831497  0.13564550  0.00000000       0.167
   0.23494490 -0.04521517  0.00000000       0.167
   0.00000000  0.09043033  0.00000000       0.167
  -0.07831497  0.04521517  0.00000000       0.167
  -0.07831497 -0.04521517  0.00000000       0.167
 
 k-points in reciprocal lattice and weights: K-Spacing Value to Generate K-Mesh: 0.15
   0.25000000  0.25000000  0.00000000       0.167
  -0.25000000  0.50000000  0.00000000       0.167
   0.50000000  0.25000000  0.00000000       0.167
  -0.25000000  0.25000000  0.00000000       0.167
  -0.25000000  0.00000000  0.00000000       0.167
   0.00000000 -0.25000000  0.00000000       0.167
 
 position of ions in fractional coordinates (direct lattice) 
   0.66666667  0.33333333  0.25000000
   0.33333333  0.66666667  0.75000000
   0.66666667  0.33333333  0.63308200
   0.41099244  0.73711346  0.36732864
   0.66666667  0.33333333  0.86691800
   0.33333333  0.66666667  0.13308200
 
 position of ions in cartesian coordinates  (Angst):
   1.59611893 -0.92151969  3.34457350
   1.59611893  0.92151969 10.03372049
   1.59611893 -0.92151969  8.46955712
   1.83251355  0.90158083  4.91423057
   1.59611893 -0.92151969 11.59788387
   1.59611893  0.92151969  1.78041012
 


--------------------------------------------------------------------------------------------------------


 k-point   1 :   0.2500 0.2500 0.0000  plane waves:    3020
 k-point   2 :  -0.2500 0.5000 0.0000  plane waves:    3020
 k-point   3 :   0.5000 0.2500 0.0000  plane waves:    3020
 k-point   4 :  -0.2500 0.2500 0.0000  plane waves:    2992
 k-point   5 :  -0.2500 0.0000 0.0000  plane waves:    2992
 k-point   6 :   0.0000-0.2500 0.0000  plane waves:    2992

 maximum and minimum number of plane-waves per node :       767      745

 maximum number of plane-waves:      3020
 maximum index in each direction: 
   IXMAX=    6   IYMAX=    6   IZMAX=   24
   IXMIN=   -6   IYMIN=   -6   IZMIN=  -24


 parallel 3D FFT for wavefunctions:
    minimum data exchange during FFTs selected (reduces bandwidth)
 parallel 3D FFT for charge:
    minimum data exchange during FFTs selected (reduces bandwidth)


 total amount of memory used by VASP MPI-rank0    38677. kBytes
=======================================================================

   base      :      30000. kBytes
   nonl-proj :       1371. kBytes
   fftplans  :       2330. kBytes
   grid      :       3750. kBytes
   one-center:         31. kBytes
   wavefun   :       1195. kBytes
 
     INWAV:  cpu time    0.0000: real time    0.0001
 Broyden mixing: mesh for mixing (old mesh)
   NGX = 11   NGY = 11   NGZ = 49
  (NGX  = 48   NGY  = 48   NGZ  =196)
  gives a total of   5929 points

 initial charge density was supplied:
 charge density of overlapping atoms calculated
 number of electron      52.0000000 magnetization 
 keeping initial charge density in first step


--------------------------------------------------------------------------------------------------------


 Maximum index for augmentation-charges         2591 (set IRDMAX)


--------------------------------------------------------------------------------------------------------


 First call to EWALD:  gamma=   0.361
 Maximum number of real-space cells 4x 4x 1
 Maximum number of reciprocal cells 2x 2x 7

    FEWALD:  cpu time    0.0019: real time    0.0019


--------------------------------------- Iteration      1(   1)  ---------------------------------------


    POTLOK:  cpu time    0.0563: real time    0.0573
    SETDIJ:  cpu time    0.0055: real time    0.0055
     EDDAV:  cpu time    0.3966: real time    0.3966
       DOS:  cpu time    0.0006: real time    0.0006
    --------------------------------------------
      LOOP:  cpu time    0.4589: real time    0.4601

 eigenvalue-minimisations  :   432
 total energy-change (2. order) : 0.4273629E+03  (-0.2922288E+04)
 number of electron      52.0000000 magnetization 
 augmentation part       52.0000000 magnetization 

 Free energy of the ion-electron system (eV)
  ---------------------------------------------------
  alpha Z        PSCENC =       160.27286088
  Ewald energy   TEWEN  =     -2844.70520079
  -Hartree energ DENC   =     -1899.46185683
  -exchange      EXHF   =         0.00000000
  -V(xc)+E(xc)   XCENC  =       182.75989166
  PAW double counting   =      3865.57804258    -3815.84821480
  entropy T*S    EENTRO =        -0.00002565
  eigenvalues    EBANDS =       -53.07520941
  atomic energy  EATOM  =      4831.84262874
  Solvation  Ediel_sol  =         0.00000000
  ---------------------------------------------------
  free energy    TOTEN  =       427.36291639 eV

  energy without entropy =      427.36294204  energy(sigma->0) =      427.36292922


--------------------------------------------------------------------------------------------------------




--------------------------------------- Iteration      1(   2)  ---------------------------------------


     EDDAV:  cpu time    0.4183: real time    0.4208
       DOS:  cpu time    0.0002: real time    0.0002
    --------------------------------------------
      LOOP:  cpu time    0.4185: real time    0.4210

 eigenvalue-minimisations  :   472
 total energy-change (2. order) :-0.4508623E+03  (-0.4404314E+03)
 number of electron      52.0000000 magnetization 
 augmentation part       52.0000000 magnetization 

 Free energy of the ion-electron system (eV)
  ---------------------------------------------------
  alpha Z        PSCENC =       160.27286088
  Ewald energy   TEWEN  =     -2844.70520079
  -Hartree energ DENC   =     -1899.46185683
  -exchange      EXHF   =         0.00000000
  -V(xc)+E(xc)   XCENC  =       182.75989166
  PAW double counting   =      3865.57804258    -3815.84821480
  entropy T*S    EENTRO =        -0.00000000
  eigenvalues    EBANDS =      -503.93757960
  atomic energy  EATOM  =      4831.84262874
  Solvation  Ediel_sol  =         0.00000000
  ---------------------------------------------------
  free energy    TOTEN  =       -23.49942815 eV

  energy without entropy =      -23.49942815  energy(sigma->0) =      -23.49942815


--------------------------------------------------------------------------------------------------------




--------------------------------------- Iteration      1(   3)  ---------------------------------------


     EDDAV:  cpu time    0.4529: real time    0.4565
       DOS:  cpu time    0.0003: real time    0.0002
    --------------------------------------------
      LOOP:  cpu time    0.4531: real time    0.4567

 eigenvalue-minimisations  :   512
 total energy-change (2. order) :-0.2306887E+02  (-0.2288431E+02)
 number of electron      52.0000000 magnetization 
 augmentation part       52.0000000 magnetization 

 Free energy of the ion-electron system (eV)
  ---------------------------------------------------
  alpha Z        PSCENC =       160.27286088
  Ewald energy   TEWEN  =     -2844.70520079
  -Hartree energ DENC   =     -1899.46185683
  -exchange      EXHF   =         0.00000000
  -V(xc)+E(xc)   XCENC  =       182.75989166
  PAW double counting   =      3865.57804258    -3815.84821480
  entropy T*S    EENTRO =        -0.00000000
  eigenvalues    EBANDS =      -527.00644760
  atomic energy  EATOM  =      4831.84262874
  Solvation  Ediel_sol  =         0.00000000
  ---------------------------------------------------
  free energy    TOTEN  =       -46.56829615 eV

  energy without entropy =      -46.56829615  energy(sigma->0) =      -46.56829615


--------------------------------------------------------------------------------------------------------




--------------------------------------- Iteration      1(   4)  ---------------------------------------


     EDDAV:  cpu time    0.4150: real time    0.4167
       DOS:  cpu time    0.0002: real time    0.0002
    --------------------------------------------
      LOOP:  cpu time    0.4152: real time    0.4169

 eigenvalue-minimisations  :   464
 total energy-change (2. order) :-0.5077635E+00  (-0.5040832E+00)
 number of electron      52.0000000 magnetization 
 augmentation part       52.0000000 magnetization 

 Free energy of the ion-electron system (eV)
  ---------------------------------------------------
  alpha Z        PSCENC =       160.27286088
  Ewald energy   TEWEN  =     -2844.70520079
  -Hartree energ DENC   =     -1899.46185683
  -exchange      EXHF   =         0.00000000
  -V(xc)+E(xc)   XCENC  =       182.75989166
  PAW double counting   =      3865.57804258    -3815.84821480
  entropy T*S    EENTRO =        -0.00000000
  eigenvalues    EBANDS =      -527.51421110
  atomic energy  EATOM  =      4831.84262874
  Solvation  Ediel_sol  =         0.00000000
  ---------------------------------------------------
  free energy    TOTEN  =       -47.07605965 eV

  energy without entropy =      -47.07605965  energy(sigma->0) =      -47.07605965


--------------------------------------------------------------------------------------------------------




--------------------------------------- Iteration      1(   5)  ---------------------------------------


     EDDAV:  cpu time    0.4322: real time    0.4347
       DOS:  cpu time    0.0002: real time    0.0002
    CHARGE:  cpu time    0.0366: real time    0.0366
    MIXING:  cpu time    0.0014: real time    0.0014
    --------------------------------------------
      LOOP:  cpu time    0.4705: real time    0.4729

 eigenvalue-minimisations  :   488
 total energy-change (2. order) :-0.1522567E-01  (-0.1521675E-01)
 number of electron      51.9999989 magnetization 
 augmentation part        0.7170951 magnetization 

 Broyden mixing:
  rms(total) = 0.33093E+01    rms(broyden)= 0.33093E+01
  rms(prec ) = 0.34051E+01
  weight for this iteration     100.00

 Free energy of the ion-electron system (eV)
  ---------------------------------------------------
  alpha Z        PSCENC =       160.27286088
  Ewald energy   TEWEN  =     -2844.70520079
  -Hartree energ DENC   =     -1899.46185683
  -exchange      EXHF   =         0.00000000
  -V(xc)+E(xc)   XCENC  =       182.75989166
  PAW double counting   =      3865.57804258    -3815.84821480
  entropy T*S    EENTRO =        -0.00000000
  eigenvalues    EBANDS =      -527.52943677
  atomic energy  EATOM  =      4831.84262874
  Solvation  Ediel_sol  =         0.00000000
  ---------------------------------------------------
  free energy    TOTEN  =       -47.09128532 eV

  energy without entropy =      -47.09128532  energy(sigma->0) =      -47.09128532


--------------------------------------------------------------------------------------------------------




--------------------------------------- Iteration      1(   6)  ---------------------------------------


    POTLOK:  cpu time    0.0558: real time    0.0594
    SETDIJ:  cpu time    0.0054: real time    0.0054
     EDDAV:  cpu time    0.3579: real time    0.3580
       DOS:  cpu time    0.0002: real time    0.0002
    CHARGE:  cpu time    0.0359: real time    0.0359
    MIXING:  cpu time    0.0015: real time    0.0015
    --------------------------------------------
      LOOP:  cpu time    0.4567: real time    0.4604

 eigenvalue-minimisations  :   384
 total energy-change (2. order) : 0.2206204E+01  (-0.2007855E+01)
 number of electron      51.9999988 magnetization 
 augmentation part        1.9381572 magnetization 

 Broyden mixing:
  rms(total) = 0.12737E+01    rms(broyden)= 0.12737E+01
  rms(prec ) = 0.13755E+01
  weight for this iteration     100.00

 eigenvalues of (default mixing * dielectric matrix)
  average eigenvalue GAMMA=   1.0899
  1.0899

 Free energy of the ion-electron system (eV)
  ---------------------------------------------------
  alpha Z        PSCENC =       160.27286088
  Ewald energy   TEWEN  =     -2844.70520079
  -Hartree energ DENC   =     -1841.71599007
  -exchange      EXHF   =         0.00000000
  -V(xc)+E(xc)   XCENC  =       181.14703385
  PAW double counting   =      4564.56755696    -4521.66314011
  entropy T*S    EENTRO =        -0.00000000
  eigenvalues    EBANDS =      -574.63083100
  atomic energy  EATOM  =      4831.84262874
  Solvation  Ediel_sol  =         0.00000000
  ---------------------------------------------------
  free energy    TOTEN  =       -44.88508154 eV

  energy without entropy =      -44.88508154  energy(sigma->0) =      -44.88508154


--------------------------------------------------------------------------------------------------------




--------------------------------------- Iteration      1(   7)  ---------------------------------------


    POTLOK:  cpu time    0.0551: real time    0.0588
    SETDIJ:  cpu time    0.0054: real time    0.0054
     EDDAV:  cpu time    0.3710: real time    0.3715
       DOS:  cpu time    0.0002: real time    0.0002
    CHARGE:  cpu time    0.0359: real time    0.0359
    MIXING:  cpu time    0.0014: real time    0.0014
    --------------------------------------------
      LOOP:  cpu time    0.4690: real time    0.4732

 eigenvalue-minimisations  :   400
 total energy-change (2. order) : 0.4846127E+00  (-0.7599832E+00)
 number of electron      51.9999989 magnetization 
 augmentation part        1.2999272 magnetization 

 Broyden mixing:
  rms(total) = 0.77705E+00    rms(broyden)= 0.77705E+00
  rms(prec ) = 0.83336E+00
  weight for this iteration     100.00

 eigenvalues of (default mixing * dielectric matrix)
  average eigenvalue GAMMA=   1.1988
  1.7547  0.6430

 Free energy of the ion-electron system (eV)
  ---------------------------------------------------
  alpha Z        PSCENC =       160.27286088
  Ewald energy   TEWEN  =     -2844.70520079
  -Hartree energ DENC   =     -1879.81073957
  -exchange      EXHF   =         0.00000000
  -V(xc)+E(xc)   XCENC  =       181.77724192
  PAW double counting   =      5135.03947984    -5090.67491978
  entropy T*S    EENTRO =        -0.00000000
  eigenvalues    EBANDS =      -538.14182004
  atomic energy  EATOM  =      4831.84262874
  Solvation  Ediel_sol  =         0.00000000
  ---------------------------------------------------
  free energy    TOTEN  =       -44.40046880 eV

  energy without entropy =      -44.40046880  energy(sigma->0) =      -44.40046880


--------------------------------------------------------------------------------------------------------




--------------------------------------- Iteration      1(   8)  ---------------------------------------


    POTLOK:  cpu time    0.0551: real time    0.0590
    SETDIJ:  cpu time    0.0054: real time    0.0054
     EDDAV:  cpu time    0.4168: real time    0.4168
       DOS:  cpu time    0.0002: real time    0.0002
    CHARGE:  cpu time    0.0358: real time    0.0358
    MIXING:  cpu time    0.0014: real time    0.0014
    --------------------------------------------
      LOOP:  cpu time    0.5147: real time    0.5187

 eigenvalue-minimisations  :   472
 total energy-change (2. order) : 0.3074948E+00  (-0.1219632E+00)
 number of electron      51.9999988 magnetization 
 augmentation part        1.5318704 magnetization 

 Broyden mixing:
  rms(total) = 0.27280E+00    rms(broyden)= 0.27280E+00
  rms(prec ) = 0.27575E+00
  weight for this iteration     100.00

 eigenvalues of (default mixing * dielectric matrix)
  average eigenvalue GAMMA=   1.2825
  2.3488  0.8998  0.5989

 Free energy of the ion-electron system (eV)
  ---------------------------------------------------
  alpha Z        PSCENC =       160.27286088
  Ewald energy   TEWEN  =     -2844.70520079
  -Hartree energ DENC   =     -1864.03755098
  -exchange      EXHF   =         0.00000000
  -V(xc)+E(xc)   XCENC  =       181.39668987
  PAW double counting   =      5607.96170442    -5565.73185491
  entropy T*S    EENTRO =        -0.00000000
  eigenvalues    EBANDS =      -551.09225128
  atomic energy  EATOM  =      4831.84262874
  Solvation  Ediel_sol  =         0.00000000
  ---------------------------------------------------
  free energy    TOTEN  =       -44.09297405 eV

  energy without entropy =      -44.09297405  energy(sigma->0) =      -44.09297405


--------------------------------------------------------------------------------------------------------




--------------------------------------- Iteration      1(   9)  ---------------------------------------


    POTLOK:  cpu time    0.0550: real time    0.0585
    SETDIJ:  cpu time    0.0053: real time    0.0053
     EDDAV:  cpu time    0.4256: real time    0.4257
       DOS:  cpu time    0.0003: real time    0.0003
    CHARGE:  cpu time    0.0362: real time    0.0362
    MIXING:  cpu time    0.0015: real time    0.0015
    --------------------------------------------
      LOOP:  cpu time    0.5240: real time    0.5275

 eigenvalue-minimisations  :   472
 total energy-change (2. order) :-0.7706224E-02  (-0.1251457E-01)
 number of electron      51.9999988 magnetization 
 augmentation part        1.6033710 magnetization 

 Broyden mixing:
  rms(total) = 0.11602E+00    rms(broyden)= 0.11602E+00
  rms(prec ) = 0.12603E+00
  weight for this iteration     100.00

 eigenvalues of (default mixing * dielectric matrix)
  average eigenvalue GAMMA=   1.3126
  2.1577  1.6577  0.7175  0.7175

 Free energy of the ion-electron system (eV)
  ---------------------------------------------------
  alpha Z        PSCENC =       160.27286088
  Ewald energy   TEWEN  =     -2844.70520079
  -Hartree energ DENC   =     -1862.65192604
  -exchange      EXHF   =         0.00000000
  -V(xc)+E(xc)   XCENC  =       181.37585263
  PAW double counting   =      5857.73568673    -5816.08805985
  entropy T*S    EENTRO =        -0.00000000
  eigenvalues    EBANDS =      -551.88252256
  atomic energy  EATOM  =      4831.84262874
  Solvation  Ediel_sol  =         0.00000000
  ---------------------------------------------------
  free energy    TOTEN  =       -44.10068027 eV

  energy without entropy =      -44.10068027  energy(sigma->0) =      -44.10068027


--------------------------------------------------------------------------------------------------------




--------------------------------------- Iteration      1(  10)  ---------------------------------------


    POTLOK:  cpu time    0.0559: real time    0.0586
    SETDIJ:  cpu time    0.0054: real time    0.0054
     EDDAV:  cpu time    0.4275: real time    0.4275
       DOS:  cpu time    0.0002: real time    0.0002
    CHARGE:  cpu time    0.0358: real time    0.0358
    MIXING:  cpu time    0.0015: real time    0.0015
    --------------------------------------------
      LOOP:  cpu time    0.5263: real time    0.5290

 eigenvalue-minimisations  :   488
 total energy-change (2. order) : 0.6761525E-02  (-0.4653122E-02)
 number of electron      51.9999988 magnetization 
 augmentation part        1.5450467 magnetization 

 Broyden mixing:
  rms(total) = 0.37263E-01    rms(broyden)= 0.37263E-01
  rms(prec ) = 0.39094E-01
  weight for this iteration     100.00

 eigenvalues of (default mixing * dielectric matrix)
  average eigenvalue GAMMA=   1.2626
  2.2998  1.9223  0.8576  0.6166  0.6166

 Free energy of the ion-electron system (eV)
  ---------------------------------------------------
  alpha Z        PSCENC =       160.27286088
  Ewald energy   TEWEN  =     -2844.70520079
  -Hartree energ DENC   =     -1866.02848130
  -exchange      EXHF   =         0.00000000
  -V(xc)+E(xc)   XCENC  =       181.49201289
  PAW double counting   =      5842.60100217    -5800.64360891
  entropy T*S    EENTRO =        -0.00000000
  eigenvalues    EBANDS =      -548.92513243
  atomic energy  EATOM  =      4831.84262874
  Solvation  Ediel_sol  =         0.00000000
  ---------------------------------------------------
  free energy    TOTEN  =       -44.09391875 eV

  energy without entropy =      -44.09391875  energy(sigma->0) =      -44.09391875


--------------------------------------------------------------------------------------------------------




--------------------------------------- Iteration      1(  11)  ---------------------------------------


    POTLOK:  cpu time    0.0550: real time    0.0581
    SETDIJ:  cpu time    0.0053: real time    0.0053
     EDDAV:  cpu time    0.4306: real time    0.4306
       DOS:  cpu time    0.0002: real time    0.0002
    CHARGE:  cpu time    0.0360: real time    0.0360
    MIXING:  cpu time    0.0015: real time    0.0015
    --------------------------------------------
      LOOP:  cpu time    0.5287: real time    0.5318

 eigenvalue-minimisations  :   488
 total energy-change (2. order) :-0.8594839E-04  (-0.1678901E-03)
 number of electron      51.9999988 magnetization 
 augmentation part        1.5471374 magnetization 

 Broyden mixing:
  rms(total) = 0.22018E-01    rms(broyden)= 0.22018E-01
  rms(prec ) = 0.23271E-01
  weight for this iteration     100.00

 eigenvalues of (default mixing * dielectric matrix)
  average eigenvalue GAMMA=   1.3125
  2.4371  2.1281  1.2057  0.6752  0.7144  0.7144

 Free energy of the ion-electron system (eV)
  ---------------------------------------------------
  alpha Z        PSCENC =       160.27286088
  Ewald energy   TEWEN  =     -2844.70520079
  -Hartree energ DENC   =     -1866.12313023
  -exchange      EXHF   =         0.00000000
  -V(xc)+E(xc)   XCENC  =       181.50412338
  PAW double counting   =      5857.89255194    -5815.95049633
  entropy T*S    EENTRO =        -0.00000000
  eigenvalues    EBANDS =      -548.82734229
  atomic energy  EATOM  =      4831.84262874
  Solvation  Ediel_sol  =         0.00000000
  ---------------------------------------------------
  free energy    TOTEN  =       -44.09400470 eV

  energy without entropy =      -44.09400470  energy(sigma->0) =      -44.09400470


--------------------------------------------------------------------------------------------------------




--------------------------------------- Iteration      1(  12)  ---------------------------------------


    POTLOK:  cpu time    0.0550: real time    0.0583
    SETDIJ:  cpu time    0.0053: real time    0.0053
     EDDAV:  cpu time    0.4333: real time    0.4334
       DOS:  cpu time    0.0002: real time    0.0002
    CHARGE:  cpu time    0.0360: real time    0.0360
    MIXING:  cpu time    0.0016: real time    0.0016
    --------------------------------------------
      LOOP:  cpu time    0.5314: real time    0.5348

 eigenvalue-minimisations  :   496
 total energy-change (2. order) : 0.8808847E-04  (-0.9587770E-04)
 number of electron      51.9999988 magnetization 
 augmentation part        1.5546516 magnetization 

 Broyden mixing:
  rms(total) = 0.41744E-02    rms(broyden)= 0.41743E-02
  rms(prec ) = 0.46242E-02
  weight for this iteration     100.00

 eigenvalues of (default mixing * dielectric matrix)
  average eigenvalue GAMMA=   1.3097
  2.5054  2.2383  1.4874  0.8844  0.6953  0.6953  0.6618

 Free energy of the ion-electron system (eV)
  ---------------------------------------------------
  alpha Z        PSCENC =       160.27286088
  Ewald energy   TEWEN  =     -2844.70520079
  -Hartree energ DENC   =     -1866.10988249
  -exchange      EXHF   =         0.00000000
  -V(xc)+E(xc)   XCENC  =       181.50463404
  PAW double counting   =      5859.71415691    -5817.79361970
  entropy T*S    EENTRO =        -0.00000000
  eigenvalues    EBANDS =      -548.81949421
  atomic energy  EATOM  =      4831.84262874
  Solvation  Ediel_sol  =         0.00000000
  ---------------------------------------------------
  free energy    TOTEN  =       -44.09391661 eV

  energy without entropy =      -44.09391661  energy(sigma->0) =      -44.09391661


--------------------------------------------------------------------------------------------------------




--------------------------------------- Iteration      1(  13)  ---------------------------------------


    POTLOK:  cpu time    0.0550: real time    0.0587
    SETDIJ:  cpu time    0.0053: real time    0.0053
     EDDAV:  cpu time    0.4300: real time    0.4300
       DOS:  cpu time    0.0002: real time    0.0002
    CHARGE:  cpu time    0.0361: real time    0.0361
    MIXING:  cpu time    0.0016: real time    0.0016
    --------------------------------------------
      LOOP:  cpu time    0.5282: real time    0.5319

 eigenvalue-minimisations  :   488
 total energy-change (2. order) :-0.2595326E-04  (-0.1137108E-04)
 number of electron      51.9999988 magnetization 
 augmentation part        1.5559595 magnetization 

 Broyden mixing:
  rms(total) = 0.16982E-02    rms(broyden)= 0.16982E-02
  rms(prec ) = 0.19665E-02
  weight for this iteration     100.00

 eigenvalues of (default mixing * dielectric matrix)
  average eigenvalue GAMMA=   1.2959
  2.7870  2.1917  1.6326  1.0234  0.7184  0.7184  0.6638  0.6317

 Free energy of the ion-electron system (eV)
  ---------------------------------------------------
  alpha Z        PSCENC =       160.27286088
  Ewald energy   TEWEN  =     -2844.70520079
  -Hartree energ DENC   =     -1866.18279551
  -exchange      EXHF   =         0.00000000
  -V(xc)+E(xc)   XCENC  =       181.50545918
  PAW double counting   =      5858.48047401    -5816.56034395
  entropy T*S    EENTRO =        -0.00000000
  eigenvalues    EBANDS =      -548.74702512
  atomic energy  EATOM  =      4831.84262874
  Solvation  Ediel_sol  =         0.00000000
  ---------------------------------------------------
  free energy    TOTEN  =       -44.09394256 eV

  energy without entropy =      -44.09394256  energy(sigma->0) =      -44.09394256


--------------------------------------------------------------------------------------------------------




--------------------------------------- Iteration      1(  14)  ---------------------------------------


    POTLOK:  cpu time    0.0551: real time    0.0588
    SETDIJ:  cpu time    0.0053: real time    0.0053
     EDDAV:  cpu time    0.3756: real time    0.3757
       DOS:  cpu time    0.0002: real time    0.0002
    CHARGE:  cpu time    0.0360: real time    0.0360
    MIXING:  cpu time    0.0017: real time    0.0017
    --------------------------------------------
      LOOP:  cpu time    0.4739: real time    0.4776

 eigenvalue-minimisations  :   408
 total energy-change (2. order) :-0.1255685E-04  (-0.1431242E-05)
 number of electron      51.9999988 magnetization 
 augmentation part        1.5558669 magnetization 

 Broyden mixing:
  rms(total) = 0.12109E-02    rms(broyden)= 0.12109E-02
  rms(prec ) = 0.13089E-02
  weight for this iteration     100.00

 eigenvalues of (default mixing * dielectric matrix)
  average eigenvalue GAMMA=   1.3905
  2.7985  2.3312  1.7911  1.7911  0.9999  0.7600  0.7179  0.7179  0.6070

 Free energy of the ion-electron system (eV)
  ---------------------------------------------------
  alpha Z        PSCENC =       160.27286088
  Ewald energy   TEWEN  =     -2844.70520079
  -Hartree energ DENC   =     -1866.23849738
  -exchange      EXHF   =         0.00000000
  -V(xc)+E(xc)   XCENC  =       181.50740077
  PAW double counting   =      5859.13238991    -5817.21013338
  entropy T*S    EENTRO =        -0.00000000
  eigenvalues    EBANDS =      -548.69540387
  atomic energy  EATOM  =      4831.84262874
  Solvation  Ediel_sol  =         0.00000000
  ---------------------------------------------------
  free energy    TOTEN  =       -44.09395512 eV

  energy without entropy =      -44.09395512  energy(sigma->0) =      -44.09395512


--------------------------------------------------------------------------------------------------------




--------------------------------------- Iteration      1(  15)  ---------------------------------------


    POTLOK:  cpu time    0.0548: real time    0.0587
    SETDIJ:  cpu time    0.0053: real time    0.0053
     EDDAV:  cpu time    0.3832: real time    0.3832
       DOS:  cpu time    0.0002: real time    0.0002
    CHARGE:  cpu time    0.0360: real time    0.0360
    MIXING:  cpu time    0.0017: real time    0.0017
    --------------------------------------------
      LOOP:  cpu time    0.4814: real time    0.4852

 eigenvalue-minimisations  :   416
 total energy-change (2. order) :-0.3482786E-05  (-0.1104082E-05)
 number of electron      51.9999988 magnetization 
 augmentation part        1.5551905 magnetization 

 Broyden mixing:
  rms(total) = 0.52075E-03    rms(broyden)= 0.52074E-03
  rms(prec ) = 0.58959E-03
  weight for this iteration     100.00

 eigenvalues of (default mixing * dielectric matrix)
  average eigenvalue GAMMA=   1.3719
  2.9704  2.4603  1.9939  1.5598  1.0618  0.8253  0.8253  0.7014  0.7014  0.6197

 Free energy of the ion-electron system (eV)
  ---------------------------------------------------
  alpha Z        PSCENC =       160.27286088
  Ewald energy   TEWEN  =     -2844.70520079
  -Hartree energ DENC   =     -1866.27380421
  -exchange      EXHF   =         0.00000000
  -V(xc)+E(xc)   XCENC  =       181.50889383
  PAW double counting   =      5859.06553892    -5817.13879595
  entropy T*S    EENTRO =        -0.00000000
  eigenvalues    EBANDS =      -548.66608003
  atomic energy  EATOM  =      4831.84262874
  Solvation  Ediel_sol  =         0.00000000
  ---------------------------------------------------
  free energy    TOTEN  =       -44.09395860 eV

  energy without entropy =      -44.09395860  energy(sigma->0) =      -44.09395860


--------------------------------------------------------------------------------------------------------




--------------------------------------- Iteration      1(  16)  ---------------------------------------


    POTLOK:  cpu time    0.0550: real time    0.0584
    SETDIJ:  cpu time    0.0053: real time    0.0053
     EDDAV:  cpu time    0.3426: real time    0.3426
       DOS:  cpu time    0.0002: real time    0.0002
    --------------------------------------------
      LOOP:  cpu time    0.4031: real time    0.4065

 eigenvalue-minimisations  :   352
 total energy-change (2. order) :-0.8669667E-07  (-0.1386718E-06)
 number of electron      51.9999988 magnetization 
 augmentation part        1.5551905 magnetization 

 Free energy of the ion-electron system (eV)
  ---------------------------------------------------
  alpha Z        PSCENC =       160.27286088
  Ewald energy   TEWEN  =     -2844.70520079
  -Hartree energ DENC   =     -1866.27078661
  -exchange      EXHF   =         0.00000000
  -V(xc)+E(xc)   XCENC  =       181.50884856
  PAW double counting   =      5859.05457684    -5817.12871260
  entropy T*S    EENTRO =        -0.00000000
  eigenvalues    EBANDS =      -548.66817371
  atomic energy  EATOM  =      4831.84262874
  Solvation  Ediel_sol  =         0.00000000
  ---------------------------------------------------
  free energy    TOTEN  =       -44.09395869 eV

  energy without entropy =      -44.09395869  energy(sigma->0) =      -44.09395869


--------------------------------------------------------------------------------------------------------




 average (electrostatic) potential at core
  the test charge radii are     1.0818  0.9698
  (the norm of the test charge is              1.0000)
       1 -75.9298       2 -75.9506       3 -85.6521       4 -85.6676       5 -85.6511
       6 -85.6437
 
 
 
 E-fermi :   5.6922     XC(G=0): -10.1528     alpha+bet :-12.2268

 Fermi energy:         5.6922348680

 k-point     1 :       0.2500    0.2500    0.0000
  band No.  band energies     occupation 
      1     -55.1591      2.00000
      2     -55.1455      2.00000
      3     -29.3958      2.00000
      4     -29.3860      2.00000
      5     -29.3123      2.00000
      6     -29.3078      2.00000
      7     -29.2549      2.00000
      8     -29.2413      2.00000
      9      -6.5986      2.00000
     10      -6.5517      2.00000
     11      -6.3717      2.00000
     12      -6.3214      2.00000
     13       0.5467      2.00000
     14       0.6472      2.00000
     15       0.7732      2.00000
     16       0.8236      2.00000
     17       1.9966      2.00000
     18       2.0608      2.00000
     19       2.2793      2.00000
     20       2.5632      2.00000
     21       2.7311      2.00000
     22       2.8316      2.00000
     23       3.9449      2.00000
     24       4.0557      2.00000
     25       5.1808      2.00000
     26       5.2832      2.00000
     27       7.6464      0.00000
     28       7.9436      0.00000
     29       8.4291      0.00000
     30       8.4907      0.00000
     31       8.6230      0.00000
     32       8.9580      0.00000

 k-point     2 :      -0.2500    0.5000    0.0000
  band No.  band energies     occupation 
      1     -55.1591      2.00000
      2     -55.1453      2.00000
      3     -29.4139      2.00000
      4     -29.3960      2.00000
      5     -29.3078      2.00000
      6     -29.3069      2.00000
      7     -29.2547      2.00000
      8     -29.2223      2.00000
      9      -6.5857      2.00000
     10      -6.5242      2.00000
     11      -6.4211      2.00000
     12      -6.3402      2.00000
     13       0.5489      2.00000
     14       0.6535      2.00000
     15       0.7934      2.00000
     16       0.9677      2.00000
     17       1.9794      2.00000
     18       2.0465      2.00000
     19       2.2471      2.00000
     20       2.5545      2.00000
     21       2.7541      2.00000
     22       2.9023      2.00000
     23       3.9036      2.00000
     24       4.0498      2.00000
     25       5.1810      2.00000
     26       5.2805      2.00000
     27       7.6532      0.00000
     28       7.9304      0.00000
     29       8.2558      0.00000
     30       8.4541      0.00000
     31       8.5640      0.00000
     32       8.8700      0.00000

 k-point     3 :       0.5000    0.2500    0.0000
  band No.  band energies     occupation 
      1     -55.1591      2.00000
      2     -55.1457      2.00000
      3     -29.3957      2.00000
      4     -29.3678      2.00000
      5     -29.3108      2.00000
      6     -29.3078      2.00000
      7     -29.2592      2.00000
      8     -29.2551      2.00000
      9      -6.6108      2.00000
     10      -6.5599      2.00000
     11      -6.3598      2.00000
     12      -6.2919      2.00000
     13       0.5382      2.00000
     14       0.6312      2.00000
     15       0.6868      2.00000
     16       0.8029      2.00000
     17       1.9904      2.00000
     18       2.0801      2.00000
     19       2.3268      2.00000
     20       2.6253      2.00000
     21       2.7204      2.00000
     22       2.8029      2.00000
     23       3.9216      2.00000
     24       4.0301      2.00000
     25       5.1812      2.00000
     26       5.3127      2.00000
     27       7.6694      0.00000
     28       7.9778      0.00000
     29       8.4499      0.00000
     30       8.5452      0.00000
     31       8.6756      0.00000
     32       9.0452      0.00000

 k-point     4 :      -0.2500    0.2500    0.0000
  band No.  band energies     occupation 
      1     -55.1770      2.00000
      2     -55.1634      2.00000
      3     -29.3485      2.00000
      4     -29.3436      2.00000
      5     -29.2853      2.00000
      6     -29.2790      2.00000
      7     -29.1455      2.00000
      8     -29.1291      2.00000
      9      -7.6101      2.00000
     10      -7.5247      2.00000
     11      -6.8367      2.00000
     12      -6.7198      2.00000
     13       0.5386      2.00000
     14       0.9028      2.00000
     15       1.8088      2.00000
     16       1.8773      2.00000
     17       1.9490      2.00000
     18       2.1995      2.00000
     19       3.1931      2.00000
     20       3.2922      2.00000
     21       3.8716      2.00000
     22       3.9040      2.00000
     23       4.1439      2.00000
     24       4.5686      2.00000
     25       4.9460      2.00000
     26       5.0483      2.00000
     27       7.5500      0.00000
     28       7.7849      0.00000
     29       8.0239      0.00000
     30       8.1875      0.00000
     31       8.4444      0.00000
     32       8.7443      0.00000

 k-point     5 :      -0.2500    0.0000    0.0000
  band No.  band energies     occupation 
      1     -55.1770      2.00000
      2     -55.1636      2.00000
      3     -29.3485      2.00000
      4     -29.3436      2.00000
      5     -29.2851      2.00000
      6     -29.2532      2.00000
      7     -29.1511      2.00000
      8     -29.1457      2.00000
      9      -7.6295      2.00000
     10      -7.5420      2.00000
     11      -6.8137      2.00000
     12      -6.6868      2.00000
     13       0.5027      2.00000
     14       0.8685      2.00000
     15       1.7750      2.00000
     16       1.9252      2.00000
     17       2.0037      2.00000
     18       2.2961      2.00000
     19       2.9206      2.00000
     20       3.1942      2.00000
     21       3.9013      2.00000
     22       4.0071      2.00000
     23       4.0717      2.00000
     24       4.5320      2.00000
     25       4.9499      2.00000
     26       5.2161      2.00000
     27       7.5559      0.00000
     28       7.8346      0.00000
     29       8.0256      0.00000
     30       8.0609      0.00000
     31       8.3919      0.00000
     32       8.7250      0.00000

 k-point     6 :       0.0000   -0.2500    0.0000
  band No.  band energies     occupation 
      1     -55.1770      2.00000
      2     -55.1632      2.00000
      3     -29.3476      2.00000
      4     -29.3436      2.00000
      5     -29.2923      2.00000
      6     -29.2854      2.00000
      7     -29.1454      2.00000
      8     -29.1186      2.00000
      9      -7.6035      2.00000
     10      -7.5140      2.00000
     11      -6.8546      2.00000
     12      -6.7323      2.00000
     13       0.5459      2.00000
     14       0.9065      2.00000
     15       1.8171      2.00000
     16       1.8696      2.00000
     17       2.0140      2.00000
     18       2.1929      2.00000
     19       3.1935      2.00000
     20       3.3793      2.00000
     21       3.8649      2.00000
     22       3.9035      2.00000
     23       4.1335      2.00000
     24       4.5057      2.00000
     25       4.8829      2.00000
     26       4.9747      2.00000
     27       7.5618      0.00000
     28       7.9407      0.00000
     29       8.0315      0.00000
     30       8.2024      0.00000
     31       8.4639      0.00000
     32       8.8454      0.00000


--------------------------------------------------------------------------------------------------------


 soft charge-density along one line, spin component           1
         0         1         2         3         4         5         6         7         8         9
 total charge-density along one line
 
 pseudopotential strength for first ion, spin component:           1
 -5.015  11.448  -0.001  -0.001   0.005   0.000   0.003  -0.012
 11.448   3.262  -0.000   0.003  -0.010  -0.000  -0.001   0.004
 -0.001  -0.000 -18.126   0.001   0.002   8.972  -0.001  -0.001
 -0.001   0.003   0.001 -18.137  -0.009  -0.001   8.987   0.008
  0.005  -0.010   0.002  -0.009 -18.125  -0.001   0.008   8.971
  0.000  -0.000   8.972  -0.001  -0.001   5.717   0.001   0.001
  0.003  -0.001  -0.001   8.987   0.008   0.001   5.708  -0.005
 -0.012   0.004  -0.001   0.008   8.971   0.001  -0.005   5.718
  0.002  -0.000   0.008  -0.003   0.008  -0.007   0.002  -0.004
  0.001  -0.001  -0.003   0.001  -0.003   0.002  -0.000   0.002
 -0.008   0.005   0.001  -0.003  -0.002  -0.000   0.002   0.003
 -0.010   0.004  -0.003   0.012  -0.002   0.002  -0.008   0.002
  0.000  -0.000   0.008   0.000   0.008  -0.004  -0.000  -0.006
  0.002  -0.000   0.008  -0.004   0.008  -0.007   0.002  -0.004
  0.002  -0.001  -0.003   0.001  -0.004   0.002  -0.000   0.002
 -0.008   0.005   0.001  -0.003  -0.002  -0.000   0.002   0.003
 -0.010   0.005  -0.004   0.012  -0.002   0.002  -0.009   0.002
  0.000  -0.000   0.008   0.000   0.008  -0.004  -0.000  -0.007
 total augmentation occupancy for first ion, spin component:           1
  1.995  -0.041  -0.000   0.000   0.000  -0.000   0.000   0.000  -0.013   0.001   0.014   0.030  -0.001   0.012  -0.001  -0.013
 -0.041   1.257   0.000   0.000   0.004  -0.005   0.005  -0.026  -0.257   0.050  -0.153   0.221   0.024   0.264  -0.054   0.222
 -0.000   0.000   1.998  -0.000   0.000  -0.043   0.000  -0.001  -0.006  -0.001   0.001  -0.009   0.007   0.007   0.001  -0.000
  0.000   0.000  -0.000   1.998  -0.000   0.000  -0.050   0.001  -0.007   0.006  -0.001   0.004   0.000   0.003  -0.005   0.000
  0.000   0.004   0.000  -0.000   1.998  -0.001   0.001  -0.042   0.011  -0.009   0.010  -0.000  -0.007  -0.000   0.005  -0.007
 -0.000  -0.005  -0.043   0.000  -0.001   0.092  -0.002   0.006   0.021  -0.012   0.005  -0.060   0.176  -0.030   0.014  -0.007
  0.000   0.005   0.000  -0.050   0.001  -0.002   0.126  -0.010  -0.073   0.019  -0.019   0.073   0.006   0.085  -0.021   0.023
  0.000  -0.026  -0.001   0.001  -0.042   0.006  -0.010   0.090   0.188  -0.060   0.020   0.001   0.019  -0.214   0.072  -0.026
 -0.013  -0.257  -0.006  -0.007   0.011   0.021  -0.073   0.188   2.485  -0.287   0.017  -0.029  -0.022  -2.813   0.317  -0.028
  0.001   0.050  -0.001   0.006  -0.009  -0.012   0.019  -0.060  -0.287   4.056  -0.092   0.752   0.062   0.317  -5.050   0.109
  0.014  -0.153   0.001  -0.001   0.010   0.005  -0.019   0.020   0.017  -0.092   1.687  -0.319   0.008  -0.028   0.110  -1.831
  0.030   0.221  -0.009   0.004  -0.000  -0.060   0.073   0.001  -0.029   0.752  -0.319   3.940  -0.253   0.024  -0.872   0.398
 -0.001   0.024   0.007   0.000  -0.007   0.176   0.006   0.019  -0.022   0.062   0.008  -0.253   2.383   0.084  -0.096  -0.013
  0.012   0.264   0.007   0.003  -0.000  -0.030   0.085  -0.214  -2.813   0.317  -0.028   0.024   0.084   3.954  -0.372   0.047
 -0.001  -0.054   0.001  -0.005   0.005   0.014  -0.021   0.072   0.317  -5.050   0.110  -0.872  -0.096  -0.372   6.653  -0.126
 -0.013   0.222  -0.000   0.000  -0.007  -0.007   0.023  -0.026  -0.028   0.109  -1.831   0.398  -0.013   0.047  -0.126   2.832
 -0.028  -0.265   0.005   0.002   0.001   0.072  -0.099  -0.001   0.024  -0.872   0.399  -4.907   0.283  -0.021   1.002  -0.469
  0.001  -0.027   0.004   0.000   0.008  -0.202  -0.008  -0.028   0.084  -0.096  -0.013   0.283  -2.697  -0.100   0.122   0.013


------------------------ aborting loop because EDIFF is reached ----------------------------------------


    CHARGE:  cpu time    0.0361: real time    0.0361
    FORLOC:  cpu time    0.0047: real time    0.0047
    FORNL :  cpu time    0.0730: real time    0.0730
    STRESS:  cpu time    0.1538: real time    0.1539
    FORCOR:  cpu time    0.0605: real time    0.0605
    FORHAR:  cpu time    0.0156: real time    0.0156
    MIXING:  cpu time    0.0018: real time    0.0018
    OFIELD:  cpu time    0.0000: real time    0.0000

 ---------------------------------------------------------------------------------------------

         DFTD3 V3.0 Rev 1        
 IVDW         = 12
 DF pbe       
 parameters
 VDW_S6       =    1.0000
 VDW_S8       =    0.7875
 VDW_A1       =    0.4289
 VDW_A2       =    4.4407
 k1-k3        =   16.0000    1.3333   -4.0000
 VDW_RADIUS   =   50.2022 A
 VDW_CNRADIUS =   21.1671 A
 Edisp (eV)   -2.31009

 E6    (eV) :    -1.3758
 E8    (eV) :    -0.9343
 % E8        : 40.44
    FORVDW:  cpu time    0.0383: real time    0.0386

  FORCE on cell =-STRESS in cart. coord.  units (eV):
  Direction    XX          YY          ZZ          XY          YZ          ZX
  --------------------------------------------------------------------------------------
  Alpha Z   160.27286   160.27286   160.27286
  Ewald     -47.23752   -38.22877 -2759.24159    32.16701    -4.36567   -21.61047
  Hartree  1372.62035  1376.07442  -882.42571    11.67612    -1.11286    -6.46483
  E(xc)    -219.16626  -219.15094  -219.53145     0.06325    -0.00532    -0.04627
  Local   -2333.68677 -2346.17864  2628.42727   -43.05529     5.14210    28.84674
  n-local   238.16425   238.60910   248.38644     0.97578    -0.26507    -1.75286
  augment    -1.07802    -1.18161    -3.91619    -0.04027     0.05751     0.04108
  Kinetic   829.35262   829.13899   827.14812    -1.26800     0.20687    -2.02204
  Fock        0.00000     0.00000     0.00000     0.00000     0.00000     0.00000
  vdW        -2.38431    -2.38619    -2.18653    -0.00483     0.00044     0.00651
  -------------------------------------------------------------------------------------
  Total      -3.14280    -3.03077    -3.06678     0.51378    -0.34201    -3.00213
  in kB     -42.64873   -41.12844   -41.61710     6.97210    -4.64113   -40.73978
  external pressure =      -41.80 kB  Pullay stress =        0.00 kB


 VOLUME and BASIS-vectors are now :
 -----------------------------------------------------------------------------
  energy-cutoff  :      500.00
  volume of cell :      118.07
      direct lattice vectors                 reciprocal lattice vectors
     1.596118927 -2.764559076  0.000000000     0.313259865 -0.180860668  0.000000000
     1.596118927  2.764559076  0.000000000     0.313259865  0.180860668  0.000000000
     0.000000000  0.000000000 13.378293991     0.000000000  0.000000000  0.074747946

  length of vectors
     3.192237854  3.192237854 13.378293991     0.361721335  0.361721335  0.074747946


 FORCES acting on ions
    electron-ion (+dipol)            ewald-force                    non-local-force                 convergence-correction
 -----------------------------------------------------------------------------------------------
   -.141E+02 -.273E+01 0.306E+01   0.149E+02 0.274E+01 -.353E+01   0.116E+01 0.595E-01 0.623E-02   0.295E-03 0.814E-04 0.774E-04
   0.112E-01 -.572E-03 -.702E+00   -.119E-01 0.100E-02 0.705E+00   -.148E-02 0.121E-03 -.238E-02   0.679E-05 -.370E-05 -.128E-03
   -.839E-01 -.135E-01 0.414E+03   0.846E-01 0.134E-01 -.419E+03   0.520E-03 0.342E-03 0.509E+01   -.138E-04 -.206E-05 0.248E-03
   0.148E+02 0.292E+01 -.416E+03   -.145E+02 -.279E+01 0.421E+03   -.221E+01 -.268E+00 -.440E+01   0.144E-03 -.945E-05 0.527E-03
   0.101E-01 -.127E-02 -.415E+03   0.134E-03 0.221E-04 0.419E+03   -.600E-02 0.670E-03 -.510E+01   -.178E-04 0.727E-06 -.261E-03
   0.614E+00 -.315E-01 0.414E+03   -.467E+00 0.394E-01 -.419E+03   -.130E+00 0.684E-01 0.501E+01   -.508E-04 0.342E-04 -.629E-03
 -----------------------------------------------------------------------------------------------
   0.119E+01 0.139E+00 -.599E+00   -.300E-13 0.613E-14 -.171E-12   -.119E+01 -.139E+00 0.599E+00   0.364E-03 0.101E-03 -.165E-03
 
 
 POSITION                                       TOTAL-FORCE (eV/Angst)
 -----------------------------------------------------------------------------------
      1.59612     -0.92152      3.34457         1.887723      0.065701     -0.469845
      1.59612      0.92152     10.03372        -0.002133      0.000545     -0.000195
      1.59612     -0.92152      8.46956         0.001495      0.000289      0.315081
      1.83251      0.90158      4.91423        -1.906793     -0.142373      0.147705
      1.59612     -0.92152     11.59788         0.004257     -0.000581     -0.315139
      1.59612      0.92152      1.78041         0.015451      0.076419      0.322392
 -----------------------------------------------------------------------------------
    total drift:                                0.000008      0.000009      0.000105


--------------------------------------------------------------------------------------------------------



  FREE ENERGIE OF THE ION-ELECTRON SYSTEM (eV)
  ---------------------------------------------------
  free  energy   TOTEN  =       -46.40404757 eV

  energy  without entropy=      -46.40404757  energy(sigma->0) =      -46.40404757
 


--------------------------------------------------------------------------------------------------------


    POTLOK:  cpu time    0.0610: real time    0.0612


--------------------------------------------------------------------------------------------------------


 stress matrix after NEB project (eV)
     -3.14280      0.51378     -3.00213
      0.51378     -3.03077     -0.34201
     -3.00213     -0.34201     -3.06678
  FORCES: max atom, RMS     1.946425    1.138357
  FORCE total and by dimension    2.788395    1.906793
  Stress total and by dimension    6.874260    3.142805
 writing wavefunctions
     LOOP+:  cpu time    8.8905: real time    8.9531
    4ORBIT:  cpu time    0.0000: real time    0.0000

 total amount of memory used by VASP MPI-rank0    38677. kBytes
=======================================================================

   base      :      30000. kBytes
   nonl-proj :       1371. kBytes
   fftplans  :       2330. kBytes
   grid      :       3750. kBytes
   one-center:         31. kBytes
   wavefun   :       1195. kBytes
 
  
  
 General timing and accounting informations for this job:
 ========================================================
  
                  Total CPU time used (sec):       10.541
                            User time (sec):        9.641
                          System time (sec):        0.900
                         Elapsed time (sec):       11.034
  
                   Maximum memory used (kb):      135696.
                   Average memory used (kb):          N/A
  
                          Minor page faults:        27581
                          Major page faults:            0
                 Voluntary context switches:         1000
