 vasp.6.2.0 18Jan21 (build Jul 31 2023 14:19:35) complex                        
  
 executed on             LinuxIFC date 2025.09.17  14:46:03
 running on    8 total cores
 distrk:  each k-point on    8 cores,    1 groups
 distr:  one band on NCORE=   4 cores,    2 groups


--------------------------------------------------------------------------------------------------------


 INCAR:
   SYSTEM = MoS2_SinglePoint_vdW_Coulomb
   PREC = Accurate
   ENCUT = 500
   GGA = PE
   ALGO = Normal
   NELM = 100
   NELMIN = 5
   EDIFF = 1E-6
   ISMEAR = 0
   SIGMA = 0.05
   IBRION = -1
   NSW = 0
   LREAL = .FALSE.
   LCHARG = .TRUE.
   LWAVE = .TRUE.
   NWRITE = 1
   NCORE = 4

 POTCAR:    PAW_PBE Mo_sv 02Feb2006               
 POTCAR:    PAW_PBE S 06Sep2000                   
 POTCAR:    PAW_PBE Mo_sv 02Feb2006               
  local pseudopotential read in
  partial core-charges read in
  partial kinetic energy density read in
  atomic valenz-charges read in
  non local Contribution for L=           0  read in
    real space projection operators read in
  non local Contribution for L=           0  read in
    real space projection operators read in
  non local Contribution for L=           1  read in
    real space projection operators read in
  non local Contribution for L=           1  read in
    real space projection operators read in
  non local Contribution for L=           2  read in
    real space projection operators read in
  non local Contribution for L=           2  read in
    real space projection operators read in
    PAW grid and wavefunctions read in
 
   number of l-projection  operators is LMAX  =           6
   number of lm-projection operators is LMMAX =          18
 
 POTCAR:    PAW_PBE S 06Sep2000                   
  local pseudopotential read in
  partial core-charges read in
  partial kinetic energy density read in
  atomic valenz-charges read in
  non local Contribution for L=           0  read in
    real space projection operators read in
  non local Contribution for L=           0  read in
    real space projection operators read in
  non local Contribution for L=           1  read in
    real space projection operators read in
  non local Contribution for L=           1  read in
    real space projection operators read in
    PAW grid and wavefunctions read in
 
   number of l-projection  operators is LMAX  =           4
   number of lm-projection operators is LMMAX =           8
 
  PAW_PBE Mo_sv 02Feb2006               :
 energy of atom  1       EATOM=-1862.2866
 kinetic energy error for atom=    0.0074 (will be added to EATOM!!)
  PAW_PBE S 06Sep2000                   :
 energy of atom  2       EATOM= -276.8230
 kinetic energy error for atom=    0.0020 (will be added to EATOM!!)
 
 
 POSCAR: Mo S
  positions in direct lattice
  No initial velocities read in
 exchange correlation table for  LEXCH =        8
   RHO(1)=    0.500       N(1)  =     2000
   RHO(2)=  100.500       N(2)  =     4000

 VTST: version 4.0, (05/15/20)

 CHAIN: initializing optimizer
 
 OPT: Using VASP Dynamics algorithm
 CHAIN: Read ICHAIN            0
 
 POSCAR: Mo S
  positions in direct lattice
  No initial velocities read in
 


--------------------------------------------------------------------------------------------------------


 ion  position               nearest neighbor table
   1  0.667  0.333  0.250-   4 2.42   6 2.42   4 2.42   6 2.42   4 2.42   6 2.42   3 2.74
   2  0.333  0.667  0.750-   5 2.42   5 2.42   5 2.42
   3  0.667  0.333  0.455-   4 2.19   4 2.19   4 2.19   1 2.74
   4  0.333  0.667  0.367-   3 2.19   3 2.19   3 2.19   1 2.42   1 2.42   1 2.42
   5  0.667  0.333  0.867-   2 2.42   2 2.42   2 2.42
   6  0.333  0.667  0.133-   1 2.42   1 2.42   1 2.42
 
  LATTYP: Found a hexagonal cell.
 ALAT       =     3.1922378540
 C/A-ratio  =     4.1908825730
  
  Lattice vectors:
  
 A1 = (   1.5961189270,  -2.7645590765,   0.0000000000)
 A2 = (   1.5961189270,   2.7645590765,   0.0000000000)
 A3 = (   0.0000000000,   0.0000000000,  13.3782939911)


Analysis of symmetry for initial positions (statically):
=====================================================================
 Subroutine PRICEL returns:
 Original cell was already a primitive cell.
 

 Routine SETGRP: Setting up the symmetry group for a 
 hexagonal supercell.


 Subroutine GETGRP returns: Found  6 space group operations
 (whereof  6 operations were pure point group operations)
 out of a pool of 24 trial point group operations.


The static configuration has the point symmetry C_3v.


Analysis of symmetry for dynamics (positions and initial velocities):
=====================================================================
 Subroutine PRICEL returns:
 Original cell was already a primitive cell.
 

 Routine SETGRP: Setting up the symmetry group for a 
 hexagonal supercell.


 Subroutine GETGRP returns: Found  6 space group operations
 (whereof  6 operations were pure point group operations)
 out of a pool of 24 trial point group operations.


The dynamic configuration has the point symmetry C_3v.


 Subroutine INISYM returns: Found  6 space group operations
 (whereof  6 operations are pure point group operations),
 and found     1 'primitive' translations


----------------------------------------------------------------------------------------

                                     Primitive cell                                     

  volume of cell :     118.0652

  direct lattice vectors                    reciprocal lattice vectors
     1.596118927 -2.764559076  0.000000000     0.313259865 -0.180860668  0.000000000
     1.596118927  2.764559076  0.000000000     0.313259865  0.180860668  0.000000000
     0.000000000  0.000000000 13.378293991     0.000000000  0.000000000  0.074747946

  length of vectors
     3.192237854  3.192237854 13.378293991     0.361721335  0.361721335  0.074747946

  position of ions in fractional coordinates (direct lattice)
     0.666666667  0.333333333  0.250000000
     0.333333333  0.666666667  0.750000000
     0.666666667  0.333333333  0.455022938
     0.333333333  0.666666667  0.366918000
     0.666666667  0.333333333  0.866918000
     0.333333333  0.666666667  0.133082000

  ion indices of the primitive-cell ions
   primitive index   ion index
                 1           1
                 2           2
                 3           3
                 4           4
                 5           5
                 6           6

----------------------------------------------------------------------------------------

 
 
 KPOINTS: K-Spacing Value to Generate K-Mesh: 0.15

Automatic generation of k-mesh.
 Grid dimensions read from file:
 generate k-points for:    2    2    1

 Generating k-lattice:

  Cartesian coordinates                     Fractional coordinates (reciprocal lattice)
     0.156629933 -0.090430334  0.000000000     0.500000000  0.000000000  0.000000000
     0.156629933  0.090430334  0.000000000     0.000000000  0.500000000  0.000000000
     0.000000000  0.000000000  0.074747946     0.000000000  0.000000000  1.000000000

  Length of vectors
     0.180860668  0.180860668  0.074747946

  Shift w.r.t. Gamma in fractional coordinates (k-lattice)
     0.500000000  0.500000000  0.000000000

 
 Subroutine IBZKPT returns following result:
 ===========================================
 
 Found      2 irreducible k-points:
 
 Following reciprocal coordinates:
            Coordinates               Weight
  0.250000  0.250000  0.000000      6.000000
 -0.250000  0.250000  0.000000      6.000000
 
 Following cartesian coordinates:
            Coordinates               Weight
  0.156630  0.000000  0.000000      6.000000
  0.000000  0.090430  0.000000      6.000000
 


--------------------------------------------------------------------------------------------------------




 Dimension of arrays:
   k-points           NKPTS =      2   k-points in BZ     NKDIM =      2   number of bands    NBANDS=     32
   number of dos      NEDOS =    301   number of ions     NIONS =      6
   non local maximal  LDIM  =      6   non local SUM 2l+1 LMDIM =     18
   total plane-waves  NPLWV =  56448
   max r-space proj   IRMAX =      1   max aug-charges    IRDMAX=  21106
   dimension x,y,z NGX =    24 NGY =   24 NGZ =   98
   dimension x,y,z NGXF=    48 NGYF=   48 NGZF=  196
   support grid    NGXF=    48 NGYF=   48 NGZF=  196
   ions per type =               2   4
   NGX,Y,Z   is equivalent  to a cutoff of  12.50, 12.50, 12.18 a.u.
   NGXF,Y,Z  is equivalent  to a cutoff of  25.00, 25.00, 24.36 a.u.

 SYSTEM =  MoS2_SinglePoint_vdW_Coulomb           
 POSCAR =  Mo S                                    

 Startparameter for this run:
   NWRITE =      1    write-flag & timer
   PREC   = accura    normal or accurate (medium, high low for compatibility)
   ISTART =      0    job   : 0-new  1-cont  2-samecut
   ICHARG =      2    charge: 1-file 2-atom 10-const
   ISPIN  =      1    spin polarized calculation?
   LNONCOLLINEAR =      F non collinear calculations
   LSORBIT =      F    spin-orbit coupling
   INIWAV =      1    electr: 0-lowe 1-rand  2-diag
   LASPH  =      F    aspherical Exc in radial PAW
   METAGGA=      F    non-selfconsistent MetaGGA calc.

 Electronic Relaxation 1
   ENCUT  =  500.0 eV  36.75 Ry    6.06 a.u.   5.82  5.82 24.39*2*pi/ulx,y,z
   ENINI  =  500.0     initial cutoff
   ENAUG  =  446.0 eV  augmentation charge cutoff
   NELM   =    100;   NELMIN=  5; NELMDL= -5     # of ELM steps 
   EDIFF  = 0.1E-05   stopping-criterion for ELM
   LREAL  =      F    real-space projection
   NLSPLINE    = F    spline interpolate recip. space projectors
   LCOMPAT=      F    compatible to vasp.4.4
   GGA_COMPAT  = T    GGA compatible to vasp.4.4-vasp.4.6
   LMAXPAW     = -100 max onsite density
   LMAXMIX     =    2 max onsite mixed and CHGCAR
   VOSKOWN=      0    Vosko Wilk Nusair interpolation
   ROPT   =    0.00000   0.00000
 Ionic relaxation
   EDIFFG = 0.1E-04   stopping-criterion for IOM
   NSW    =      0    number of steps for IOM
   NBLOCK =      1;   KBLOCK =      1    inner block; outer block 
   IBRION =     -1    ionic relax: 0-MD 1-quasi-New 2-CG
   NFREE  =      0    steps in history (QN), initial steepest desc. (CG)
   ISIF   =      2    stress and relaxation
   IWAVPR =     10    prediction:  0-non 1-charg 2-wave 3-comb
   ISYM   =      2    0-nonsym 1-usesym 2-fastsym
   LCORR  =      T    Harris-Foulkes like correction to forces

   POTIM  = 0.5000    time-step for ionic-motion
   TEIN   =    0.0    initial temperature
   TEBEG  =    0.0;   TEEND  =   0.0 temperature during run
   SMASS  =  -3.00    Nose mass-parameter (am)
   estimated Nose-frequenzy (Omega)   =  0.10E-29 period in steps = 0.13E+47 mass=  -0.233E-27a.u.
   SCALEE = 1.0000    scale energy and forces
   NPACO  =    256;   APACO  = 16.0  distance and # of slots for P.C.
   PSTRESS=    0.0 pullay stress

  Mass of Ions in am
   POMASS =  95.94 32.07
  Ionic Valenz
   ZVAL   =  14.00  6.00
  Atomic Wigner-Seitz radii
   RWIGS  =  -1.00 -1.00
  virtual crystal weights 
   VCA    =   1.00  1.00
   NELECT =      52.0000    total number of electrons
   NUPDOWN=      -1.0000    fix difference up-down

 DOS related values:
   EMIN   =  10.00;   EMAX   =-10.00  energy-range for DOS
   EFERMI =   0.00
   ISMEAR =     0;   SIGMA  =   0.05  broadening in eV -4-tet -1-fermi 0-gaus

 Electronic relaxation 2 (details)
   IALGO  =     38    algorithm
   LDIAG  =      T    sub-space diagonalisation (order eigenvalues)
   LSUBROT=      F    optimize rotation matrix (better conditioning)
   TURBO    =      0    0=normal 1=particle mesh
   IRESTART =      0    0=no restart 2=restart with 2 vectors
   NREBOOT  =      0    no. of reboots
   NMIN     =      0    reboot dimension
   EREF     =   0.00    reference energy to select bands
   IMIX   =      4    mixing-type and parameters
     AMIX     =   0.40;   BMIX     =  1.00
     AMIX_MAG =   1.60;   BMIX_MAG =  1.00
     AMIN     =   0.10
     WC   =   100.;   INIMIX=   1;  MIXPRE=   1;  MAXMIX= -45

 Intra band minimization:
   WEIMIN = 0.0000     energy-eigenvalue tresh-hold
   EBREAK =  0.78E-08  absolut break condition
   DEPER  =   0.30     relativ break condition  

   TIME   =   0.40     timestep for ELM

  volume/ion in A,a.u.               =      19.68       132.79
  Fermi-wavevector in a.u.,A,eV,Ry     =   1.245571  2.353789 21.108736  1.551448
  Thomas-Fermi vector in A             =   2.379788
 
 Write flags
   LWAVE        =      T    write WAVECAR
   LDOWNSAMPLE  =      F    k-point downsampling of WAVECAR
   LCHARG       =      T    write CHGCAR
   LVTOT        =      F    write LOCPOT, total local potential
   LVHAR        =      F    write LOCPOT, Hartree potential only
   LELF         =      F    write electronic localiz. function (ELF)
   LORBIT       =      0    0 simple, 1 ext, 2 COOP (PROOUT), +10 PAW based schemes


 Dipole corrections
   LMONO  =      F    monopole corrections only (constant potential shift)
   LDIPOL =      F    correct potential (dipole corrections)
   IDIPOL =      0    1-x, 2-y, 3-z, 4-all directions 
   EPSILON=  1.0000000 bulk dielectric constant

 Exchange correlation treatment:
   GGA     =    PE    GGA type
   LEXCH   =     8    internal setting for exchange type
   VOSKOWN=      0    Vosko Wilk Nusair interpolation
   LHFCALC =     F    Hartree Fock is set to
   LHFONE  =     F    Hartree Fock one center treatment
   AEXX    =    0.0000 exact exchange contribution

 Linear response parameters
   LEPSILON=     F    determine dielectric tensor
   LRPA    =     F    only Hartree local field effects (RPA)
   LNABLA  =     F    use nabla operator in PAW spheres
   LVEL    =     F    velocity operator in full k-point grid
   LINTERFAST=   F  fast interpolation
   KINTER  =     0    interpolate to denser k-point grid
   CSHIFT  =0.1000    complex shift for real part using Kramers Kronig
   OMEGAMAX=  -1.0    maximum frequency
   DEG_THRESHOLD= 0.2000000E-02 threshold for treating states as degnerate
   RTIME   =   -0.100 relaxation time in fs
  (WPLASMAI=    0.000 imaginary part of plasma frequency in eV, 0.658/RTIME)
   DFIELD  = 0.0000000 0.0000000 0.0000000 field for delta impulse in time
 
 Orbital magnetization related:
   ORBITALMAG=     F  switch on orbital magnetization
   LCHIMAG   =     F  perturbation theory with respect to B field
   DQ        =  0.001000  dq finite difference perturbation B field
   LLRAUG    =     F  two centre corrections for induced B field



--------------------------------------------------------------------------------------------------------


 Static calculation
 charge density and potential will be updated during run
 non-spin polarized calculation
 Variant of blocked Davidson
 Davidson routine will perform the subspace rotation
 perform sub-space diagonalisation
    after iterative eigenvector-optimisation
 modified Broyden-mixing scheme, WC =      100.0
 initial mixing is a Kerker type mixing with AMIX =  0.4000 and BMIX =      1.0000
 Hartree-type preconditioning will be used
 using additional bands            6
 reciprocal scheme for non local part
 use partial core corrections
 calculate Harris-corrections to forces 
   (improved forces if not selfconsistent)
 use gradient corrections 
 use of overlap-Matrix (Vanderbilt PP)
 Gauss-broadening in eV      SIGMA  =   0.05


--------------------------------------------------------------------------------------------------------


  energy-cutoff  :      500.00
  volume of cell :      118.07
      direct lattice vectors                 reciprocal lattice vectors
     1.596118927 -2.764559076  0.000000000     0.313259865 -0.180860668  0.000000000
     1.596118927  2.764559076  0.000000000     0.313259865  0.180860668  0.000000000
     0.000000000  0.000000000 13.378293991     0.000000000  0.000000000  0.074747946

  length of vectors
     3.192237854  3.192237854 13.378293991     0.361721335  0.361721335  0.074747946


 
 k-points in units of 2pi/SCALE and weight: K-Spacing Value to Generate K-Mesh: 0.15
   0.15662993  0.00000000  0.00000000       0.500
   0.00000000  0.09043033  0.00000000       0.500
 
 k-points in reciprocal lattice and weights: K-Spacing Value to Generate K-Mesh: 0.15
   0.25000000  0.25000000  0.00000000       0.500
  -0.25000000  0.25000000  0.00000000       0.500
 
 position of ions in fractional coordinates (direct lattice) 
   0.66666667  0.33333333  0.25000000
   0.33333333  0.66666667  0.75000000
   0.66666667  0.33333333  0.45502294
   0.33333333  0.66666667  0.36691800
   0.66666667  0.33333333  0.86691800
   0.33333333  0.66666667  0.13308200
 
 position of ions in cartesian coordinates  (Angst):
   1.59611893 -0.92151969  3.34457350
   1.59611893  0.92151969 10.03372049
   1.59611893 -0.92151969  6.08743064
   1.59611893  0.92151969  4.90873687
   1.59611893 -0.92151969 11.59788387
   1.59611893  0.92151969  1.78041012
 


--------------------------------------------------------------------------------------------------------


 k-point   1 :   0.2500 0.2500 0.0000  plane waves:    3020
 k-point   2 :  -0.2500 0.2500 0.0000  plane waves:    2992

 maximum and minimum number of plane-waves per node :       768      742

 maximum number of plane-waves:      3020
 maximum index in each direction: 
   IXMAX=    6   IYMAX=    5   IZMAX=   24
   IXMIN=   -6   IYMIN=   -6   IZMIN=  -24


 parallel 3D FFT for wavefunctions:
    minimum data exchange during FFTs selected (reduces bandwidth)
 parallel 3D FFT for charge:
    minimum data exchange during FFTs selected (reduces bandwidth)


 total amount of memory used by VASP MPI-rank0    37007. kBytes
=======================================================================

   base      :      30000. kBytes
   nonl-proj :        502. kBytes
   fftplans  :       2328. kBytes
   grid      :       3750. kBytes
   one-center:         31. kBytes
   wavefun   :        396. kBytes
 
     INWAV:  cpu time    0.0000: real time    0.0001
 Broyden mixing: mesh for mixing (old mesh)
   NGX = 11   NGY = 11   NGZ = 49
  (NGX  = 48   NGY  = 48   NGZ  =196)
  gives a total of   5929 points

 initial charge density was supplied:
 charge density of overlapping atoms calculated
 number of electron      52.0000000 magnetization 
 keeping initial charge density in first step


--------------------------------------------------------------------------------------------------------


 Maximum index for augmentation-charges         2591 (set IRDMAX)


--------------------------------------------------------------------------------------------------------


 First call to EWALD:  gamma=   0.361
 Maximum number of real-space cells 4x 4x 1
 Maximum number of reciprocal cells 2x 2x 7

    FEWALD:  cpu time    0.0020: real time    0.0020


--------------------------------------- Iteration      1(   1)  ---------------------------------------


    POTLOK:  cpu time    0.0578: real time    0.0591
    SETDIJ:  cpu time    0.0055: real time    0.0055
     EDDAV:  cpu time    0.1336: real time    0.1337
       DOS:  cpu time    0.0003: real time    0.0003
    --------------------------------------------
      LOOP:  cpu time    0.1973: real time    0.1987

 eigenvalue-minimisations  :   144
 total energy-change (2. order) : 0.4358314E+03  (-0.2906781E+04)
 number of electron      52.0000000 magnetization 
 augmentation part       52.0000000 magnetization 

 Free energy of the ion-electron system (eV)
  ---------------------------------------------------
  alpha Z        PSCENC =       160.27286088
  Ewald energy   TEWEN  =     -2788.30573036
  -Hartree energ DENC   =     -1957.49713742
  -exchange      EXHF   =         0.00000000
  -V(xc)+E(xc)   XCENC  =       183.20793930
  PAW double counting   =      3865.57804258    -3815.84821480
  entropy T*S    EENTRO =        -0.00001033
  eigenvalues    EBANDS =       -43.41902745
  atomic energy  EATOM  =      4831.84262874
  Solvation  Ediel_sol  =         0.00000000
  ---------------------------------------------------
  free energy    TOTEN  =       435.83135114 eV

  energy without entropy =      435.83136147  energy(sigma->0) =      435.83135630


--------------------------------------------------------------------------------------------------------




--------------------------------------- Iteration      1(   2)  ---------------------------------------


     EDDAV:  cpu time    0.1394: real time    0.1420
       DOS:  cpu time    0.0003: real time    0.0003
    --------------------------------------------
      LOOP:  cpu time    0.1399: real time    0.1425

 eigenvalue-minimisations  :   160
 total energy-change (2. order) :-0.4516341E+03  (-0.4394539E+03)
 number of electron      52.0000000 magnetization 
 augmentation part       52.0000000 magnetization 

 Free energy of the ion-electron system (eV)
  ---------------------------------------------------
  alpha Z        PSCENC =       160.27286088
  Ewald energy   TEWEN  =     -2788.30573036
  -Hartree energ DENC   =     -1957.49713742
  -exchange      EXHF   =         0.00000000
  -V(xc)+E(xc)   XCENC  =       183.20793930
  PAW double counting   =      3865.57804258    -3815.84821480
  entropy T*S    EENTRO =        -0.01167123
  eigenvalues    EBANDS =      -495.04145065
  atomic energy  EATOM  =      4831.84262874
  Solvation  Ediel_sol  =         0.00000000
  ---------------------------------------------------
  free energy    TOTEN  =       -15.80273295 eV

  energy without entropy =      -15.79106172  energy(sigma->0) =      -15.79689734


--------------------------------------------------------------------------------------------------------




--------------------------------------- Iteration      1(   3)  ---------------------------------------


     EDDAV:  cpu time    0.1448: real time    0.1491
       DOS:  cpu time    0.0003: real time    0.0003
    --------------------------------------------
      LOOP:  cpu time    0.1450: real time    0.1493

 eigenvalue-minimisations  :   168
 total energy-change (2. order) :-0.2257659E+02  (-0.2231801E+02)
 number of electron      52.0000000 magnetization 
 augmentation part       52.0000000 magnetization 

 Free energy of the ion-electron system (eV)
  ---------------------------------------------------
  alpha Z        PSCENC =       160.27286088
  Ewald energy   TEWEN  =     -2788.30573036
  -Hartree energ DENC   =     -1957.49713742
  -exchange      EXHF   =         0.00000000
  -V(xc)+E(xc)   XCENC  =       183.20793930
  PAW double counting   =      3865.57804258    -3815.84821480
  entropy T*S    EENTRO =        -0.00001699
  eigenvalues    EBANDS =      -517.62969397
  atomic energy  EATOM  =      4831.84262874
  Solvation  Ediel_sol  =         0.00000000
  ---------------------------------------------------
  free energy    TOTEN  =       -38.37932204 eV

  energy without entropy =      -38.37930505  energy(sigma->0) =      -38.37931354


--------------------------------------------------------------------------------------------------------




--------------------------------------- Iteration      1(   4)  ---------------------------------------


     EDDAV:  cpu time    0.1389: real time    0.1429
       DOS:  cpu time    0.0003: real time    0.0003
    --------------------------------------------
      LOOP:  cpu time    0.1392: real time    0.1431

 eigenvalue-minimisations  :   160
 total energy-change (2. order) :-0.5851064E+00  (-0.5832374E+00)
 number of electron      52.0000000 magnetization 
 augmentation part       52.0000000 magnetization 

 Free energy of the ion-electron system (eV)
  ---------------------------------------------------
  alpha Z        PSCENC =       160.27286088
  Ewald energy   TEWEN  =     -2788.30573036
  -Hartree energ DENC   =     -1957.49713742
  -exchange      EXHF   =         0.00000000
  -V(xc)+E(xc)   XCENC  =       183.20793930
  PAW double counting   =      3865.57804258    -3815.84821480
  entropy T*S    EENTRO =        -0.00000792
  eigenvalues    EBANDS =      -518.21480947
  atomic energy  EATOM  =      4831.84262874
  Solvation  Ediel_sol  =         0.00000000
  ---------------------------------------------------
  free energy    TOTEN  =       -38.96442847 eV

  energy without entropy =      -38.96442055  energy(sigma->0) =      -38.96442451


--------------------------------------------------------------------------------------------------------




--------------------------------------- Iteration      1(   5)  ---------------------------------------


     EDDAV:  cpu time    0.1502: real time    0.1540
       DOS:  cpu time    0.0004: real time    0.0004
    CHARGE:  cpu time    0.0227: real time    0.0227
    MIXING:  cpu time    0.0014: real time    0.0014
    --------------------------------------------
      LOOP:  cpu time    0.1747: real time    0.1786

 eigenvalue-minimisations  :   176
 total energy-change (2. order) :-0.1821477E-01  (-0.1820737E-01)
 number of electron      51.9999992 magnetization 
 augmentation part        1.0122925 magnetization 

 Broyden mixing:
  rms(total) = 0.34380E+01    rms(broyden)= 0.34380E+01
  rms(prec ) = 0.35250E+01
  weight for this iteration     100.00

 Free energy of the ion-electron system (eV)
  ---------------------------------------------------
  alpha Z        PSCENC =       160.27286088
  Ewald energy   TEWEN  =     -2788.30573036
  -Hartree energ DENC   =     -1957.49713742
  -exchange      EXHF   =         0.00000000
  -V(xc)+E(xc)   XCENC  =       183.20793930
  PAW double counting   =      3865.57804258    -3815.84821480
  entropy T*S    EENTRO =        -0.00000759
  eigenvalues    EBANDS =      -518.23302456
  atomic energy  EATOM  =      4831.84262874
  Solvation  Ediel_sol  =         0.00000000
  ---------------------------------------------------
  free energy    TOTEN  =       -38.98264324 eV

  energy without entropy =      -38.98263564  energy(sigma->0) =      -38.98263944


--------------------------------------------------------------------------------------------------------




--------------------------------------- Iteration      1(   6)  ---------------------------------------


    POTLOK:  cpu time    0.0548: real time    0.0583
    SETDIJ:  cpu time    0.0054: real time    0.0054
     EDDAV:  cpu time    0.1284: real time    0.1284
       DOS:  cpu time    0.0003: real time    0.0003
    CHARGE:  cpu time    0.0247: real time    0.0247
    MIXING:  cpu time    0.0015: real time    0.0015
    --------------------------------------------
      LOOP:  cpu time    0.2151: real time    0.2186

 eigenvalue-minimisations  :   144
 total energy-change (2. order) : 0.1943648E+01  (-0.1329586E+01)
 number of electron      51.9999991 magnetization 
 augmentation part        1.7852760 magnetization 

 Broyden mixing:
  rms(total) = 0.16570E+01    rms(broyden)= 0.16570E+01
  rms(prec ) = 0.17038E+01
  weight for this iteration     100.00

 eigenvalues of (default mixing * dielectric matrix)
  average eigenvalue GAMMA=   1.4818
  1.4818

 Free energy of the ion-electron system (eV)
  ---------------------------------------------------
  alpha Z        PSCENC =       160.27286088
  Ewald energy   TEWEN  =     -2788.30573036
  -Hartree energ DENC   =     -1917.13629407
  -exchange      EXHF   =         0.00000000
  -V(xc)+E(xc)   XCENC  =       181.80235255
  PAW double counting   =      4744.94903338    -4700.20636899
  entropy T*S    EENTRO =        -0.00000095
  eigenvalues    EBANDS =      -550.25747649
  atomic energy  EATOM  =      4831.84262874
  Solvation  Ediel_sol  =         0.00000000
  ---------------------------------------------------
  free energy    TOTEN  =       -37.03899532 eV

  energy without entropy =      -37.03899437  energy(sigma->0) =      -37.03899484


--------------------------------------------------------------------------------------------------------




--------------------------------------- Iteration      1(   7)  ---------------------------------------


    POTLOK:  cpu time    0.0550: real time    0.0586
    SETDIJ:  cpu time    0.0053: real time    0.0053
     EDDAV:  cpu time    0.1281: real time    0.1281
       DOS:  cpu time    0.0004: real time    0.0004
    CHARGE:  cpu time    0.0222: real time    0.0222
    MIXING:  cpu time    0.0014: real time    0.0014
    --------------------------------------------
      LOOP:  cpu time    0.2124: real time    0.2161

 eigenvalue-minimisations  :   144
 total energy-change (2. order) : 0.1753051E-01  (-0.7024089E+00)
 number of electron      51.9999992 magnetization 
 augmentation part        1.2044649 magnetization 

 Broyden mixing:
  rms(total) = 0.12112E+01    rms(broyden)= 0.12112E+01
  rms(prec ) = 0.12871E+01
  weight for this iteration     100.00

 eigenvalues of (default mixing * dielectric matrix)
  average eigenvalue GAMMA=   1.3829
  2.1477  0.6181

 Free energy of the ion-electron system (eV)
  ---------------------------------------------------
  alpha Z        PSCENC =       160.27286088
  Ewald energy   TEWEN  =     -2788.30573036
  -Hartree energ DENC   =     -1944.45375800
  -exchange      EXHF   =         0.00000000
  -V(xc)+E(xc)   XCENC  =       182.23924090
  PAW double counting   =      5691.09177287    -5645.49248627
  entropy T*S    EENTRO =        -0.02814710
  eigenvalues    EBANDS =      -524.18784647
  atomic energy  EATOM  =      4831.84262874
  Solvation  Ediel_sol  =         0.00000000
  ---------------------------------------------------
  free energy    TOTEN  =       -37.02146481 eV

  energy without entropy =      -36.99331771  energy(sigma->0) =      -37.00739126


--------------------------------------------------------------------------------------------------------




--------------------------------------- Iteration      1(   8)  ---------------------------------------


    POTLOK:  cpu time    0.0550: real time    0.0582
    SETDIJ:  cpu time    0.0054: real time    0.0054
     EDDAV:  cpu time    0.1436: real time    0.1440
       DOS:  cpu time    0.0002: real time    0.0002
    CHARGE:  cpu time    0.0225: real time    0.0225
    MIXING:  cpu time    0.0015: real time    0.0015
    --------------------------------------------
      LOOP:  cpu time    0.2283: real time    0.2318

 eigenvalue-minimisations  :   160
 total energy-change (2. order) : 0.2442549E+00  (-0.4270132E+00)
 number of electron      51.9999991 magnetization 
 augmentation part        1.6885058 magnetization 

 Broyden mixing:
  rms(total) = 0.25269E+00    rms(broyden)= 0.25268E+00
  rms(prec ) = 0.40398E+00
  weight for this iteration     100.00

 eigenvalues of (default mixing * dielectric matrix)
  average eigenvalue GAMMA=   1.2715
  2.3214  0.9313  0.5617

 Free energy of the ion-electron system (eV)
  ---------------------------------------------------
  alpha Z        PSCENC =       160.27286088
  Ewald energy   TEWEN  =     -2788.30573036
  -Hartree energ DENC   =     -1924.21208103
  -exchange      EXHF   =         0.00000000
  -V(xc)+E(xc)   XCENC  =       181.73825502
  PAW double counting   =      6376.20906030    -6332.78924377
  entropy T*S    EENTRO =        -0.00000000
  eigenvalues    EBANDS =      -541.53295968
  atomic energy  EATOM  =      4831.84262874
  Solvation  Ediel_sol  =         0.00000000
  ---------------------------------------------------
  free energy    TOTEN  =       -36.77720990 eV

  energy without entropy =      -36.77720990  energy(sigma->0) =      -36.77720990


--------------------------------------------------------------------------------------------------------




--------------------------------------- Iteration      1(   9)  ---------------------------------------


    POTLOK:  cpu time    0.0558: real time    0.0583
    SETDIJ:  cpu time    0.0054: real time    0.0054
     EDDAV:  cpu time    0.1496: real time    0.1496
       DOS:  cpu time    0.0003: real time    0.0003
    CHARGE:  cpu time    0.0222: real time    0.0222
    MIXING:  cpu time    0.0015: real time    0.0015
    --------------------------------------------
      LOOP:  cpu time    0.2348: real time    0.2373

 eigenvalue-minimisations  :   176
 total energy-change (2. order) : 0.1450159E+00  (-0.1384597E+00)
 number of electron      51.9999991 magnetization 
 augmentation part        1.5475604 magnetization 

 Broyden mixing:
  rms(total) = 0.18032E+00    rms(broyden)= 0.18032E+00
  rms(prec ) = 0.23442E+00
  weight for this iteration     100.00

 eigenvalues of (default mixing * dielectric matrix)
  average eigenvalue GAMMA=   1.0717
  2.3392  0.9404  0.5036  0.5036

 Free energy of the ion-electron system (eV)
  ---------------------------------------------------
  alpha Z        PSCENC =       160.27286088
  Ewald energy   TEWEN  =     -2788.30573036
  -Hartree energ DENC   =     -1930.06749639
  -exchange      EXHF   =         0.00000000
  -V(xc)+E(xc)   XCENC  =       181.89365200
  PAW double counting   =      6557.22887961    -6513.47369316
  entropy T*S    EENTRO =        -0.00049123
  eigenvalues    EBANDS =      -536.02280408
  atomic energy  EATOM  =      4831.84262874
  Solvation  Ediel_sol  =         0.00000000
  ---------------------------------------------------
  free energy    TOTEN  =       -36.63219400 eV

  energy without entropy =      -36.63170277  energy(sigma->0) =      -36.63194838


--------------------------------------------------------------------------------------------------------




--------------------------------------- Iteration      1(  10)  ---------------------------------------


    POTLOK:  cpu time    0.0549: real time    0.0579
    SETDIJ:  cpu time    0.0054: real time    0.0054
     EDDAV:  cpu time    0.1443: real time    0.1444
       DOS:  cpu time    0.0003: real time    0.0003
    CHARGE:  cpu time    0.0221: real time    0.0221
    MIXING:  cpu time    0.0015: real time    0.0015
    --------------------------------------------
      LOOP:  cpu time    0.2286: real time    0.2316

 eigenvalue-minimisations  :   168
 total energy-change (2. order) : 0.2490593E-01  (-0.2984263E-01)
 number of electron      51.9999991 magnetization 
 augmentation part        1.5891022 magnetization 

 Broyden mixing:
  rms(total) = 0.10905E+00    rms(broyden)= 0.10905E+00
  rms(prec ) = 0.11804E+00
  weight for this iteration     100.00

 eigenvalues of (default mixing * dielectric matrix)
  average eigenvalue GAMMA=   1.1192
  2.3000  1.1960  0.9918  0.6564  0.4518

 Free energy of the ion-electron system (eV)
  ---------------------------------------------------
  alpha Z        PSCENC =       160.27286088
  Ewald energy   TEWEN  =     -2788.30573036
  -Hartree energ DENC   =     -1928.38660044
  -exchange      EXHF   =         0.00000000
  -V(xc)+E(xc)   XCENC  =       181.88751457
  PAW double counting   =      6564.70224226    -6521.02664336
  entropy T*S    EENTRO =        -0.00037894
  eigenvalues    EBANDS =      -537.59318141
  atomic energy  EATOM  =      4831.84262874
  Solvation  Ediel_sol  =         0.00000000
  ---------------------------------------------------
  free energy    TOTEN  =       -36.60728807 eV

  energy without entropy =      -36.60690913  energy(sigma->0) =      -36.60709860


--------------------------------------------------------------------------------------------------------




--------------------------------------- Iteration      1(  11)  ---------------------------------------


    POTLOK:  cpu time    0.0549: real time    0.0586
    SETDIJ:  cpu time    0.0053: real time    0.0053
     EDDAV:  cpu time    0.1417: real time    0.1417
       DOS:  cpu time    0.0003: real time    0.0003
    CHARGE:  cpu time    0.0222: real time    0.0222
    MIXING:  cpu time    0.0016: real time    0.0016
    --------------------------------------------
      LOOP:  cpu time    0.2261: real time    0.2297

 eigenvalue-minimisations  :   160
 total energy-change (2. order) : 0.3338830E-02  (-0.3857405E-02)
 number of electron      51.9999991 magnetization 
 augmentation part        1.5738471 magnetization 

 Broyden mixing:
  rms(total) = 0.69080E-01    rms(broyden)= 0.69080E-01
  rms(prec ) = 0.75076E-01
  weight for this iteration     100.00

 eigenvalues of (default mixing * dielectric matrix)
  average eigenvalue GAMMA=   1.1991
  2.2201  2.2201  1.0598  0.6333  0.6333  0.4280

 Free energy of the ion-electron system (eV)
  ---------------------------------------------------
  alpha Z        PSCENC =       160.27286088
  Ewald energy   TEWEN  =     -2788.30573036
  -Hartree energ DENC   =     -1929.32124803
  -exchange      EXHF   =         0.00000000
  -V(xc)+E(xc)   XCENC  =       181.90559063
  PAW double counting   =      6559.22740711    -6515.50655110
  entropy T*S    EENTRO =        -0.00072078
  eigenvalues    EBANDS =      -536.71818634
  atomic energy  EATOM  =      4831.84262874
  Solvation  Ediel_sol  =         0.00000000
  ---------------------------------------------------
  free energy    TOTEN  =       -36.60394924 eV

  energy without entropy =      -36.60322846  energy(sigma->0) =      -36.60358885


--------------------------------------------------------------------------------------------------------




--------------------------------------- Iteration      1(  12)  ---------------------------------------


    POTLOK:  cpu time    0.0550: real time    0.0582
    SETDIJ:  cpu time    0.0053: real time    0.0053
     EDDAV:  cpu time    0.1510: real time    0.1513
       DOS:  cpu time    0.0003: real time    0.0003
    CHARGE:  cpu time    0.0221: real time    0.0221
    MIXING:  cpu time    0.0016: real time    0.0016
    --------------------------------------------
      LOOP:  cpu time    0.2353: real time    0.2389

 eigenvalue-minimisations  :   176
 total energy-change (2. order) : 0.1039874E-02  (-0.1209208E-02)
 number of electron      51.9999991 magnetization 
 augmentation part        1.5647780 magnetization 

 Broyden mixing:
  rms(total) = 0.23896E-01    rms(broyden)= 0.23896E-01
  rms(prec ) = 0.25662E-01
  weight for this iteration     100.00

 eigenvalues of (default mixing * dielectric matrix)
  average eigenvalue GAMMA=   1.2003
  2.3293  2.3293  1.2226  0.7214  0.7214  0.6363  0.4417

 Free energy of the ion-electron system (eV)
  ---------------------------------------------------
  alpha Z        PSCENC =       160.27286088
  Ewald energy   TEWEN  =     -2788.30573036
  -Hartree energ DENC   =     -1929.59602015
  -exchange      EXHF   =         0.00000000
  -V(xc)+E(xc)   XCENC  =       181.92300693
  PAW double counting   =      6537.88230858    -6494.12475616
  entropy T*S    EENTRO =        -0.00245650
  eigenvalues    EBANDS =      -536.49475133
  atomic energy  EATOM  =      4831.84262874
  Solvation  Ediel_sol  =         0.00000000
  ---------------------------------------------------
  free energy    TOTEN  =       -36.60290936 eV

  energy without entropy =      -36.60045286  energy(sigma->0) =      -36.60168111


--------------------------------------------------------------------------------------------------------




--------------------------------------- Iteration      1(  13)  ---------------------------------------


    POTLOK:  cpu time    0.0549: real time    0.0576
    SETDIJ:  cpu time    0.0054: real time    0.0054
     EDDAV:  cpu time    0.1448: real time    0.1448
       DOS:  cpu time    0.0003: real time    0.0003
    CHARGE:  cpu time    0.0222: real time    0.0222
    MIXING:  cpu time    0.0016: real time    0.0016
    --------------------------------------------
      LOOP:  cpu time    0.2293: real time    0.2319

 eigenvalue-minimisations  :   168
 total energy-change (2. order) : 0.7270862E-04  (-0.1210730E-03)
 number of electron      51.9999991 magnetization 
 augmentation part        1.5697192 magnetization 

 Broyden mixing:
  rms(total) = 0.68872E-02    rms(broyden)= 0.68871E-02
  rms(prec ) = 0.74610E-02
  weight for this iteration     100.00

 eigenvalues of (default mixing * dielectric matrix)
  average eigenvalue GAMMA=   1.2032
  2.3954  2.3704  1.1198  1.1198  0.8135  0.7558  0.6113  0.4392

 Free energy of the ion-electron system (eV)
  ---------------------------------------------------
  alpha Z        PSCENC =       160.27286088
  Ewald energy   TEWEN  =     -2788.30573036
  -Hartree energ DENC   =     -1929.40383528
  -exchange      EXHF   =         0.00000000
  -V(xc)+E(xc)   XCENC  =       181.92260759
  PAW double counting   =      6546.66654439    -6502.93674298
  entropy T*S    EENTRO =        -0.00245656
  eigenvalues    EBANDS =      -536.65871308
  atomic energy  EATOM  =      4831.84262874
  Solvation  Ediel_sol  =         0.00000000
  ---------------------------------------------------
  free energy    TOTEN  =       -36.60283665 eV

  energy without entropy =      -36.60038009  energy(sigma->0) =      -36.60160837


--------------------------------------------------------------------------------------------------------




--------------------------------------- Iteration      1(  14)  ---------------------------------------


    POTLOK:  cpu time    0.0549: real time    0.0576
    SETDIJ:  cpu time    0.0054: real time    0.0054
     EDDAV:  cpu time    0.1447: real time    0.1448
       DOS:  cpu time    0.0003: real time    0.0003
    CHARGE:  cpu time    0.0223: real time    0.0223
    MIXING:  cpu time    0.0017: real time    0.0017
    --------------------------------------------
      LOOP:  cpu time    0.2294: real time    0.2322

 eigenvalue-minimisations  :   168
 total energy-change (2. order) :-0.1100682E-04  (-0.2166298E-04)
 number of electron      51.9999991 magnetization 
 augmentation part        1.5689093 magnetization 

 Broyden mixing:
  rms(total) = 0.28426E-02    rms(broyden)= 0.28426E-02
  rms(prec ) = 0.30176E-02
  weight for this iteration     100.00

 eigenvalues of (default mixing * dielectric matrix)
  average eigenvalue GAMMA=   1.2384
  2.4333  2.4333  1.3323  1.3323  1.0487  0.7618  0.7618  0.6022  0.4397

 Free energy of the ion-electron system (eV)
  ---------------------------------------------------
  alpha Z        PSCENC =       160.27286088
  Ewald energy   TEWEN  =     -2788.30573036
  -Hartree energ DENC   =     -1929.55208991
  -exchange      EXHF   =         0.00000000
  -V(xc)+E(xc)   XCENC  =       181.92796723
  PAW double counting   =      6548.36707701    -6504.63095684
  entropy T*S    EENTRO =        -0.00232747
  eigenvalues    EBANDS =      -536.52227694
  atomic energy  EATOM  =      4831.84262874
  Solvation  Ediel_sol  =         0.00000000
  ---------------------------------------------------
  free energy    TOTEN  =       -36.60284766 eV

  energy without entropy =      -36.60052019  energy(sigma->0) =      -36.60168393


--------------------------------------------------------------------------------------------------------




--------------------------------------- Iteration      1(  15)  ---------------------------------------


    POTLOK:  cpu time    0.0548: real time    0.0580
    SETDIJ:  cpu time    0.0054: real time    0.0054
     EDDAV:  cpu time    0.1428: real time    0.1428
       DOS:  cpu time    0.0003: real time    0.0003
    CHARGE:  cpu time    0.0222: real time    0.0222
    MIXING:  cpu time    0.0017: real time    0.0017
    --------------------------------------------
      LOOP:  cpu time    0.2273: real time    0.2305

 eigenvalue-minimisations  :   160
 total energy-change (2. order) :-0.1035478E-04  (-0.2108855E-05)
 number of electron      51.9999991 magnetization 
 augmentation part        1.5691906 magnetization 

 Broyden mixing:
  rms(total) = 0.15581E-02    rms(broyden)= 0.15581E-02
  rms(prec ) = 0.16657E-02
  weight for this iteration     100.00

 eigenvalues of (default mixing * dielectric matrix)
  average eigenvalue GAMMA=   1.2622
  2.6553  2.1196  1.6747  1.2816  1.2816  1.0491  0.4396  0.7590  0.7590  0.6021

 Free energy of the ion-electron system (eV)
  ---------------------------------------------------
  alpha Z        PSCENC =       160.27286088
  Ewald energy   TEWEN  =     -2788.30573036
  -Hartree energ DENC   =     -1929.57436384
  -exchange      EXHF   =         0.00000000
  -V(xc)+E(xc)   XCENC  =       181.92915197
  PAW double counting   =      6547.45824907    -6503.72049379
  entropy T*S    EENTRO =        -0.00230105
  eigenvalues    EBANDS =      -536.50285964
  atomic energy  EATOM  =      4831.84262874
  Solvation  Ediel_sol  =         0.00000000
  ---------------------------------------------------
  free energy    TOTEN  =       -36.60285802 eV

  energy without entropy =      -36.60055697  energy(sigma->0) =      -36.60170749


--------------------------------------------------------------------------------------------------------




--------------------------------------- Iteration      1(  16)  ---------------------------------------


    POTLOK:  cpu time    0.0549: real time    0.0583
    SETDIJ:  cpu time    0.0054: real time    0.0054
     EDDAV:  cpu time    0.1348: real time    0.1349
       DOS:  cpu time    0.0003: real time    0.0003
    CHARGE:  cpu time    0.0222: real time    0.0222
    MIXING:  cpu time    0.0018: real time    0.0018
    --------------------------------------------
      LOOP:  cpu time    0.2195: real time    0.2229

 eigenvalue-minimisations  :   152
 total energy-change (2. order) :-0.4027663E-05  (-0.7706938E-06)
 number of electron      51.9999991 magnetization 
 augmentation part        1.5695036 magnetization 

 Broyden mixing:
  rms(total) = 0.80680E-03    rms(broyden)= 0.80680E-03
  rms(prec ) = 0.88853E-03
  weight for this iteration     100.00

 eigenvalues of (default mixing * dielectric matrix)
  average eigenvalue GAMMA=   1.2859
  2.5649  2.4931  2.0475  1.3011  1.3011  0.4396  1.0203  0.6034  0.7510  0.7510
  0.8717

 Free energy of the ion-electron system (eV)
  ---------------------------------------------------
  alpha Z        PSCENC =       160.27286088
  Ewald energy   TEWEN  =     -2788.30573036
  -Hartree energ DENC   =     -1929.58385367
  -exchange      EXHF   =         0.00000000
  -V(xc)+E(xc)   XCENC  =       181.92966460
  PAW double counting   =      6548.07334157    -6504.33558564
  entropy T*S    EENTRO =        -0.00223225
  eigenvalues    EBANDS =      -536.49395591
  atomic energy  EATOM  =      4831.84262874
  Solvation  Ediel_sol  =         0.00000000
  ---------------------------------------------------
  free energy    TOTEN  =       -36.60286204 eV

  energy without entropy =      -36.60062979  energy(sigma->0) =      -36.60174592


--------------------------------------------------------------------------------------------------------




--------------------------------------- Iteration      1(  17)  ---------------------------------------


    POTLOK:  cpu time    0.0547: real time    0.0588
    SETDIJ:  cpu time    0.0054: real time    0.0054
     EDDAV:  cpu time    0.1092: real time    0.1092
       DOS:  cpu time    0.0003: real time    0.0003
    --------------------------------------------
      LOOP:  cpu time    0.1697: real time    0.1737

 eigenvalue-minimisations  :   112
 total energy-change (2. order) :-0.8825209E-06  (-0.2138346E-06)
 number of electron      51.9999991 magnetization 
 augmentation part        1.5695036 magnetization 

 Free energy of the ion-electron system (eV)
  ---------------------------------------------------
  alpha Z        PSCENC =       160.27286088
  Ewald energy   TEWEN  =     -2788.30573036
  -Hartree energ DENC   =     -1929.59573130
  -exchange      EXHF   =         0.00000000
  -V(xc)+E(xc)   XCENC  =       181.93018182
  PAW double counting   =      6547.84329346    -6504.10448187
  entropy T*S    EENTRO =        -0.00223982
  eigenvalues    EBANDS =      -536.48364448
  atomic energy  EATOM  =      4831.84262874
  Solvation  Ediel_sol  =         0.00000000
  ---------------------------------------------------
  free energy    TOTEN  =       -36.60286293 eV

  energy without entropy =      -36.60062310  energy(sigma->0) =      -36.60174301


--------------------------------------------------------------------------------------------------------




 average (electrostatic) potential at core
  the test charge radii are     1.0818  0.9698
  (the norm of the test charge is              1.0000)
       1 -75.5691       2 -74.6918       3 -87.0828       4 -87.9809       5 -84.8030
       6 -85.5942
 
 
 
 E-fermi :   6.7390     XC(G=0): -10.1879     alpha+bet :-12.2268

 Fermi energy:         6.7390067896

 k-point     1 :       0.2500    0.2500    0.0000
  band No.  band energies     occupation 
      1     -54.8393      2.00000
      2     -53.8751      2.00000
      3     -29.1349      2.00000
      4     -29.0763      2.00000
      5     -28.9872      2.00000
      6     -28.0351      2.00000
      7     -28.0034      2.00000
      8     -27.9101      2.00000
      9     -10.5504      2.00000
     10      -7.5677      2.00000
     11      -6.3588      2.00000
     12      -5.3977      2.00000
     13      -2.5918      2.00000
     14      -1.6771      2.00000
     15       0.0411      2.00000
     16       1.2171      2.00000
     17       2.0277      2.00000
     18       2.3233      2.00000
     19       3.0937      2.00000
     20       3.3430      2.00000
     21       3.7103      2.00000
     22       3.8485      2.00000
     23       5.2412      2.00000
     24       6.0501      2.00000
     25       6.3831      2.00000
     26       6.8186      0.02439
     27       7.3463      0.00000
     28       7.6342      0.00000
     29       8.3620      0.00000
     30       8.5889      0.00000
     31       8.9731      0.00000
     32       9.5696      0.00000

 k-point     2 :      -0.2500    0.2500    0.0000
  band No.  band energies     occupation 
      1     -54.8578      2.00000
      2     -53.8917      2.00000
      3     -29.1163      2.00000
      4     -29.0194      2.00000
      5     -28.8734      2.00000
      6     -28.0341      2.00000
      7     -27.9331      2.00000
      8     -27.8105      2.00000
      9     -12.2253      2.00000
     10      -7.1248      2.00000
     11      -6.1224      2.00000
     12      -5.8534      2.00000
     13      -1.8902      2.00000
     14      -0.0660      2.00000
     15       0.3675      2.00000
     16       1.8686      2.00000
     17       2.3969      2.00000
     18       2.6751      2.00000
     19       3.3448      2.00000
     20       3.6764      2.00000
     21       4.0441      2.00000
     22       4.7654      2.00000
     23       5.1013      2.00000
     24       5.6491      2.00000
     25       6.1376      2.00000
     26       6.3725      2.00000
     27       6.6594      1.97561
     28       7.7548      0.00000
     29       7.8358      0.00000
     30       8.2152      0.00000
     31       8.4799      0.00000
     32       8.9545      0.00000


--------------------------------------------------------------------------------------------------------


 soft charge-density along one line, spin component           1
         0         1         2         3         4         5         6         7         8         9
 total charge-density along one line
 
 pseudopotential strength for first ion, spin component:           1
 -5.144  11.366   0.000  -0.028  -0.000  -0.000   0.032   0.000
 11.366   3.274  -0.000   0.026   0.000   0.000  -0.004  -0.000
  0.000  -0.000 -18.075   0.000   0.000   8.882  -0.000  -0.000
 -0.028   0.026   0.000 -18.080  -0.000  -0.000   8.889   0.000
 -0.000   0.000   0.000  -0.000 -18.075  -0.000   0.000   8.882
 -0.000   0.000   8.882  -0.000  -0.000   5.778   0.000   0.000
  0.032  -0.004  -0.000   8.889   0.000   0.000   5.775  -0.000
  0.000  -0.000  -0.000   0.000   8.882   0.000  -0.000   5.778
  0.000  -0.000  -0.000   0.000   0.008   0.000  -0.000  -0.004
  0.000  -0.000  -0.026   0.000   0.000   0.016  -0.000  -0.000
 -0.004   0.003  -0.000  -0.035   0.000   0.000   0.021  -0.000
 -0.000   0.000   0.000  -0.000  -0.026  -0.000   0.000   0.016
 -0.000   0.000   0.008   0.000  -0.000  -0.004  -0.000   0.000
  0.000  -0.000  -0.000   0.000   0.008   0.000  -0.000  -0.004
  0.000  -0.000  -0.027   0.000   0.000   0.017  -0.000  -0.000
 -0.004   0.003  -0.000  -0.035   0.000   0.000   0.022  -0.000
 -0.000   0.000   0.000  -0.000  -0.027  -0.000   0.000   0.017
 -0.000   0.000   0.008   0.000  -0.000  -0.004  -0.000   0.000
 total augmentation occupancy for first ion, spin component:           1
  1.997  -0.032   0.000   0.001  -0.000   0.000   0.002  -0.000   0.000   0.000  -0.004  -0.000  -0.000  -0.000   0.000   0.004
 -0.032   1.173   0.000   0.021  -0.000   0.000  -0.033  -0.000   0.000   0.000  -0.096  -0.000  -0.000  -0.000   0.000   0.146
  0.000   0.000   1.999   0.000  -0.000  -0.035   0.000  -0.000   0.000   0.011   0.000   0.000   0.009  -0.000  -0.003   0.000
  0.001   0.021   0.000   2.000   0.000   0.000  -0.037   0.000   0.000   0.000   0.006  -0.000   0.000  -0.000   0.000   0.004
 -0.000  -0.000  -0.000   0.000   1.999  -0.000   0.000  -0.035   0.009  -0.000  -0.000   0.011  -0.000   0.000   0.000  -0.000
  0.000   0.000  -0.035   0.000   0.000   0.088   0.000   0.000   0.000  -0.013   0.000  -0.000   0.169  -0.000   0.010  -0.000
  0.002  -0.033   0.000  -0.037   0.000   0.000   0.107   0.000  -0.000   0.000  -0.031  -0.000  -0.000  -0.000   0.000   0.028
 -0.000  -0.000  -0.000   0.000  -0.035   0.000   0.000   0.088   0.169  -0.000   0.000  -0.013   0.000  -0.193  -0.000   0.000
  0.000   0.000   0.000   0.000   0.009   0.000  -0.000   0.169   2.759   0.000   0.000  -0.417  -0.000  -3.142  -0.000   0.000
  0.000   0.000   0.011   0.000  -0.000  -0.013   0.000  -0.000  -0.000   5.009  -0.000  -0.000  -0.417  -0.000  -5.808   0.000
 -0.004  -0.096   0.000   0.006  -0.000   0.000  -0.031   0.000   0.000  -0.000   3.206   0.000   0.000  -0.000   0.000  -3.145
 -0.000  -0.000   0.000   0.000   0.011  -0.000  -0.000  -0.013  -0.417  -0.000   0.000   5.009  -0.000   0.216  -0.000   0.000
 -0.000  -0.000   0.009   0.000  -0.000   0.169  -0.000   0.000  -0.000  -0.417   0.000  -0.000   2.759  -0.000   0.217  -0.000
 -0.000  -0.000  -0.000  -0.000   0.000  -0.000  -0.000  -0.193  -3.142  -0.000  -0.000   0.216  -0.000   4.335  -0.000  -0.000
  0.000   0.000  -0.003   0.000   0.000   0.010   0.000  -0.000  -0.000  -5.808   0.000  -0.000   0.217  -0.000   7.280  -0.000
  0.004   0.146   0.000   0.004  -0.000  -0.000   0.028   0.000   0.000   0.000  -3.145   0.000  -0.000  -0.000  -0.000   4.017
  0.000   0.000   0.000  -0.000  -0.003   0.000   0.000   0.010   0.217  -0.000   0.000  -5.808   0.000  -0.078   0.000   0.000
  0.000   0.000   0.000   0.000   0.000  -0.193   0.000   0.000  -0.000   0.216  -0.000   0.000  -3.142   0.000  -0.078   0.000


------------------------ aborting loop because EDIFF is reached ----------------------------------------


    CHARGE:  cpu time    0.0223: real time    0.0223
    FORLOC:  cpu time    0.0046: real time    0.0047
    FORNL :  cpu time    0.0357: real time    0.0357
    STRESS:  cpu time    0.0891: real time    0.0891
    FORCOR:  cpu time    0.0588: real time    0.0588
    FORHAR:  cpu time    0.0146: real time    0.0146
    MIXING:  cpu time    0.0018: real time    0.0018
    OFIELD:  cpu time    0.0000: real time    0.0000

  FORCE on cell =-STRESS in cart. coord.  units (eV):
  Direction    XX          YY          ZZ          XY          YZ          ZX
  --------------------------------------------------------------------------------------
  Alpha Z   160.27286   160.27286   160.27286
  Ewald     -10.74025   -10.74025 -2766.82815     0.00000     0.00000     0.00000
  Hartree  1421.05137  1421.05137  -912.50119    -0.00000    -0.00000    -0.00000
  E(xc)    -219.35824  -219.35824  -219.94603    -0.00000    -0.00000     0.00000
  Local   -2417.63475 -2417.63471  2673.30725     0.00000    -0.00000    -0.00000
  n-local   226.92495   243.25519   236.33289     0.00001     1.43668     0.00000
  augment    -2.29130    -2.29135    -2.77798     0.00000    -0.00000    -0.00000
  Kinetic   833.76841   834.30240   836.93149    -0.00000     6.36456     0.00001
  Fock        0.00000     0.00000     0.00000     0.00000     0.00000     0.00000
  -------------------------------------------------------------------------------------
  Total       0.42516     0.42516     4.79114     0.00000     0.00000    -0.00000
  in kB       5.76959     5.76959    65.01712     0.00000     0.00000    -0.00000
  external pressure =       25.52 kB  Pullay stress =        0.00 kB


 VOLUME and BASIS-vectors are now :
 -----------------------------------------------------------------------------
  energy-cutoff  :      500.00
  volume of cell :      118.07
      direct lattice vectors                 reciprocal lattice vectors
     1.596118927 -2.764559076  0.000000000     0.313259865 -0.180860668  0.000000000
     1.596118927  2.764559076  0.000000000     0.313259865  0.180860668  0.000000000
     0.000000000  0.000000000 13.378293991     0.000000000  0.000000000  0.074747946

  length of vectors
     3.192237854  3.192237854 13.378293991     0.361721335  0.361721335  0.074747946


 FORCES acting on ions
    electron-ion (+dipol)            ewald-force                    non-local-force                 convergence-correction
 -----------------------------------------------------------------------------------------------
   0.470E-08 0.336E-05 0.311E+03   -.394E-13 0.503E-06 -.317E+03   0.173E-17 0.243E-16 0.412E+01   -.122E-13 0.228E-10 0.221E-01
   0.174E-07 -.344E-05 0.250E+03   -.123E-13 -.253E-06 -.242E+03   0.347E-17 -.173E-16 -.694E+01   -.154E-13 0.132E-09 -.175E-01
   -.175E-06 0.102E-05 -.467E+03   -.653E-14 0.220E-06 0.475E+03   0.111E-15 0.777E-15 -.255E+01   0.114E-13 -.402E-09 0.267E-02
   0.707E-07 -.818E-06 -.357E+03   0.180E-13 -.470E-06 0.348E+03   -.222E-15 -.222E-15 0.505E+01   -.116E-13 -.164E-08 0.831E-02
   -.803E-07 0.882E-06 -.281E+03   -.471E-14 0.253E-06 0.286E+03   -.694E-17 -.833E-16 -.613E+01   -.268E-14 -.224E-09 -.286E-02
   0.787E-07 -.891E-06 0.545E+03   0.150E-13 -.253E-06 -.550E+03   0.694E-17 0.833E-16 0.552E+01   -.365E-14 -.964E-09 0.430E-02
 -----------------------------------------------------------------------------------------------
   -.834E-07 0.105E-06 0.911E+00   -.299E-13 0.634E-14 -.114E-12   -.106E-15 0.562E-15 -.928E+00   -.340E-13 -.308E-08 0.170E-01
 
 
 POSITION                                       TOTAL-FORCE (eV/Angst)
 -----------------------------------------------------------------------------------
      1.59612     -0.92152      3.34457        -0.000000      0.000000     -2.079498
      1.59612      0.92152     10.03372         0.000000     -0.000000      1.237916
      1.59612     -0.92152      6.08743         0.000000     -0.000000      5.015196
      1.59612      0.92152      4.90874        -0.000000      0.000000     -3.218014
      1.59612     -0.92152     11.59788        -0.000000      0.000000     -1.393114
      1.59612      0.92152      1.78041        -0.000000     -0.000000      0.437513
 -----------------------------------------------------------------------------------
    total drift:                               -0.000000      0.000000     -0.000242


--------------------------------------------------------------------------------------------------------



  FREE ENERGIE OF THE ION-ELECTRON SYSTEM (eV)
  ---------------------------------------------------
  free  energy   TOTEN  =       -36.60286293 eV

  energy  without entropy=      -36.60062310  energy(sigma->0) =      -36.60174301
 


--------------------------------------------------------------------------------------------------------


    POTLOK:  cpu time    0.0603: real time    0.0604


--------------------------------------------------------------------------------------------------------


 stress matrix after NEB project (eV)
      0.42516      0.00000     -0.00000
      0.00000      0.42516     -0.00000
     -0.00000      0.00000      4.79114
  FORCES: max atom, RMS     5.015196    2.692482
  FORCE total and by dimension    6.595206    5.015196
  Stress total and by dimension    4.828723    4.791142
 writing wavefunctions
     LOOP+:  cpu time    4.5118: real time    4.5803
    4ORBIT:  cpu time    0.0000: real time    0.0000

 total amount of memory used by VASP MPI-rank0    37007. kBytes
=======================================================================

   base      :      30000. kBytes
   nonl-proj :        502. kBytes
   fftplans  :       2328. kBytes
   grid      :       3750. kBytes
   one-center:         31. kBytes
   wavefun   :        396. kBytes
 
  
  
 General timing and accounting informations for this job:
 ========================================================
  
                  Total CPU time used (sec):        6.061
                            User time (sec):        5.329
                          System time (sec):        0.732
                         Elapsed time (sec):        6.588
  
                   Maximum memory used (kb):      122892.
                   Average memory used (kb):          N/A
  
                          Minor page faults:        20599
                          Major page faults:            0
                 Voluntary context switches:          932
