 vasp.6.2.0 18Jan21 (build Jul 31 2023 14:19:35) complex                        
  
 executed on             LinuxIFC date 2025.09.17  14:45:27
 running on    8 total cores
 distrk:  each k-point on    8 cores,    1 groups
 distr:  one band on NCORE=   4 cores,    2 groups


--------------------------------------------------------------------------------------------------------


 INCAR:
   SYSTEM = MoS2_SinglePoint_vdW_Coulomb
   PREC = Accurate
   ENCUT = 500
   GGA = PE
   ALGO = Normal
   NELM = 100
   NELMIN = 5
   EDIFF = 1E-6
   ISMEAR = 0
   SIGMA = 0.05
   IBRION = -1
   NSW = 0
   LREAL = .FALSE.
   LCHARG = .TRUE.
   LWAVE = .TRUE.
   NWRITE = 1
   NCORE = 4

 POTCAR:    PAW_PBE Mo_sv 02Feb2006               
 POTCAR:    PAW_PBE S 06Sep2000                   
 POTCAR:    PAW_PBE Mo_sv 02Feb2006               
  local pseudopotential read in
  partial core-charges read in
  partial kinetic energy density read in
  atomic valenz-charges read in
  non local Contribution for L=           0  read in
    real space projection operators read in
  non local Contribution for L=           0  read in
    real space projection operators read in
  non local Contribution for L=           1  read in
    real space projection operators read in
  non local Contribution for L=           1  read in
    real space projection operators read in
  non local Contribution for L=           2  read in
    real space projection operators read in
  non local Contribution for L=           2  read in
    real space projection operators read in
    PAW grid and wavefunctions read in
 
   number of l-projection  operators is LMAX  =           6
   number of lm-projection operators is LMMAX =          18
 
 POTCAR:    PAW_PBE S 06Sep2000                   
  local pseudopotential read in
  partial core-charges read in
  partial kinetic energy density read in
  atomic valenz-charges read in
  non local Contribution for L=           0  read in
    real space projection operators read in
  non local Contribution for L=           0  read in
    real space projection operators read in
  non local Contribution for L=           1  read in
    real space projection operators read in
  non local Contribution for L=           1  read in
    real space projection operators read in
    PAW grid and wavefunctions read in
 
   number of l-projection  operators is LMAX  =           4
   number of lm-projection operators is LMMAX =           8
 
  PAW_PBE Mo_sv 02Feb2006               :
 energy of atom  1       EATOM=-1862.2866
 kinetic energy error for atom=    0.0074 (will be added to EATOM!!)
  PAW_PBE S 06Sep2000                   :
 energy of atom  2       EATOM= -276.8230
 kinetic energy error for atom=    0.0020 (will be added to EATOM!!)
 
 
 POSCAR: Mo S
  positions in direct lattice
  No initial velocities read in
 exchange correlation table for  LEXCH =        8
   RHO(1)=    0.500       N(1)  =     2000
   RHO(2)=  100.500       N(2)  =     4000

 VTST: version 4.0, (05/15/20)

 CHAIN: initializing optimizer
 
 OPT: Using VASP Dynamics algorithm
 CHAIN: Read ICHAIN            0
 
 POSCAR: Mo S
  positions in direct lattice
  No initial velocities read in
 


--------------------------------------------------------------------------------------------------------


 ion  position               nearest neighbor table
   1  0.667  0.333  0.250-   4 2.42   6 2.42   4 2.42   6 2.42   4 2.42   6 2.42   3 2.46
   2  0.333  0.667  0.750-   5 2.42   5 2.42   5 2.42
   3  0.667  0.333  0.434-   4 2.05   4 2.05   4 2.05   1 2.46
   4  0.333  0.667  0.367-   3 2.05   3 2.05   3 2.05   1 2.42   1 2.42   1 2.42
   5  0.667  0.333  0.867-   2 2.42   2 2.42   2 2.42
   6  0.333  0.667  0.133-   1 2.42   1 2.42   1 2.42
 
  LATTYP: Found a hexagonal cell.
 ALAT       =     3.1922378540
 C/A-ratio  =     4.1908825730
  
  Lattice vectors:
  
 A1 = (   1.5961189270,  -2.7645590765,   0.0000000000)
 A2 = (   1.5961189270,   2.7645590765,   0.0000000000)
 A3 = (   0.0000000000,   0.0000000000,  13.3782939911)


Analysis of symmetry for initial positions (statically):
=====================================================================
 Subroutine PRICEL returns:
 Original cell was already a primitive cell.
 

 Routine SETGRP: Setting up the symmetry group for a 
 hexagonal supercell.


 Subroutine GETGRP returns: Found  6 space group operations
 (whereof  6 operations were pure point group operations)
 out of a pool of 24 trial point group operations.


The static configuration has the point symmetry C_3v.


Analysis of symmetry for dynamics (positions and initial velocities):
=====================================================================
 Subroutine PRICEL returns:
 Original cell was already a primitive cell.
 

 Routine SETGRP: Setting up the symmetry group for a 
 hexagonal supercell.


 Subroutine GETGRP returns: Found  6 space group operations
 (whereof  6 operations were pure point group operations)
 out of a pool of 24 trial point group operations.


The dynamic configuration has the point symmetry C_3v.


 Subroutine INISYM returns: Found  6 space group operations
 (whereof  6 operations are pure point group operations),
 and found     1 'primitive' translations


----------------------------------------------------------------------------------------

                                     Primitive cell                                     

  volume of cell :     118.0652

  direct lattice vectors                    reciprocal lattice vectors
     1.596118927 -2.764559076  0.000000000     0.313259865 -0.180860668  0.000000000
     1.596118927  2.764559076  0.000000000     0.313259865  0.180860668  0.000000000
     0.000000000  0.000000000 13.378293991     0.000000000  0.000000000  0.074747946

  length of vectors
     3.192237854  3.192237854 13.378293991     0.361721335  0.361721335  0.074747946

  position of ions in fractional coordinates (direct lattice)
     0.666666667  0.333333333  0.250000000
     0.333333333  0.666666667  0.750000000
     0.666666667  0.333333333  0.433666382
     0.333333333  0.666666667  0.366918000
     0.666666667  0.333333333  0.866918000
     0.333333333  0.666666667  0.133082000

  ion indices of the primitive-cell ions
   primitive index   ion index
                 1           1
                 2           2
                 3           3
                 4           4
                 5           5
                 6           6

----------------------------------------------------------------------------------------

 
 
 KPOINTS: K-Spacing Value to Generate K-Mesh: 0.15

Automatic generation of k-mesh.
 Grid dimensions read from file:
 generate k-points for:    2    2    1

 Generating k-lattice:

  Cartesian coordinates                     Fractional coordinates (reciprocal lattice)
     0.156629933 -0.090430334  0.000000000     0.500000000  0.000000000  0.000000000
     0.156629933  0.090430334  0.000000000     0.000000000  0.500000000  0.000000000
     0.000000000  0.000000000  0.074747946     0.000000000  0.000000000  1.000000000

  Length of vectors
     0.180860668  0.180860668  0.074747946

  Shift w.r.t. Gamma in fractional coordinates (k-lattice)
     0.500000000  0.500000000  0.000000000

 
 Subroutine IBZKPT returns following result:
 ===========================================
 
 Found      2 irreducible k-points:
 
 Following reciprocal coordinates:
            Coordinates               Weight
  0.250000  0.250000  0.000000      6.000000
 -0.250000  0.250000  0.000000      6.000000
 
 Following cartesian coordinates:
            Coordinates               Weight
  0.156630  0.000000  0.000000      6.000000
  0.000000  0.090430  0.000000      6.000000
 


--------------------------------------------------------------------------------------------------------




 Dimension of arrays:
   k-points           NKPTS =      2   k-points in BZ     NKDIM =      2   number of bands    NBANDS=     32
   number of dos      NEDOS =    301   number of ions     NIONS =      6
   non local maximal  LDIM  =      6   non local SUM 2l+1 LMDIM =     18
   total plane-waves  NPLWV =  56448
   max r-space proj   IRMAX =      1   max aug-charges    IRDMAX=  21106
   dimension x,y,z NGX =    24 NGY =   24 NGZ =   98
   dimension x,y,z NGXF=    48 NGYF=   48 NGZF=  196
   support grid    NGXF=    48 NGYF=   48 NGZF=  196
   ions per type =               2   4
   NGX,Y,Z   is equivalent  to a cutoff of  12.50, 12.50, 12.18 a.u.
   NGXF,Y,Z  is equivalent  to a cutoff of  25.00, 25.00, 24.36 a.u.

 SYSTEM =  MoS2_SinglePoint_vdW_Coulomb           
 POSCAR =  Mo S                                    

 Startparameter for this run:
   NWRITE =      1    write-flag & timer
   PREC   = accura    normal or accurate (medium, high low for compatibility)
   ISTART =      0    job   : 0-new  1-cont  2-samecut
   ICHARG =      2    charge: 1-file 2-atom 10-const
   ISPIN  =      1    spin polarized calculation?
   LNONCOLLINEAR =      F non collinear calculations
   LSORBIT =      F    spin-orbit coupling
   INIWAV =      1    electr: 0-lowe 1-rand  2-diag
   LASPH  =      F    aspherical Exc in radial PAW
   METAGGA=      F    non-selfconsistent MetaGGA calc.

 Electronic Relaxation 1
   ENCUT  =  500.0 eV  36.75 Ry    6.06 a.u.   5.82  5.82 24.39*2*pi/ulx,y,z
   ENINI  =  500.0     initial cutoff
   ENAUG  =  446.0 eV  augmentation charge cutoff
   NELM   =    100;   NELMIN=  5; NELMDL= -5     # of ELM steps 
   EDIFF  = 0.1E-05   stopping-criterion for ELM
   LREAL  =      F    real-space projection
   NLSPLINE    = F    spline interpolate recip. space projectors
   LCOMPAT=      F    compatible to vasp.4.4
   GGA_COMPAT  = T    GGA compatible to vasp.4.4-vasp.4.6
   LMAXPAW     = -100 max onsite density
   LMAXMIX     =    2 max onsite mixed and CHGCAR
   VOSKOWN=      0    Vosko Wilk Nusair interpolation
   ROPT   =    0.00000   0.00000
 Ionic relaxation
   EDIFFG = 0.1E-04   stopping-criterion for IOM
   NSW    =      0    number of steps for IOM
   NBLOCK =      1;   KBLOCK =      1    inner block; outer block 
   IBRION =     -1    ionic relax: 0-MD 1-quasi-New 2-CG
   NFREE  =      0    steps in history (QN), initial steepest desc. (CG)
   ISIF   =      2    stress and relaxation
   IWAVPR =     10    prediction:  0-non 1-charg 2-wave 3-comb
   ISYM   =      2    0-nonsym 1-usesym 2-fastsym
   LCORR  =      T    Harris-Foulkes like correction to forces

   POTIM  = 0.5000    time-step for ionic-motion
   TEIN   =    0.0    initial temperature
   TEBEG  =    0.0;   TEEND  =   0.0 temperature during run
   SMASS  =  -3.00    Nose mass-parameter (am)
   estimated Nose-frequenzy (Omega)   =  0.10E-29 period in steps = 0.13E+47 mass=  -0.233E-27a.u.
   SCALEE = 1.0000    scale energy and forces
   NPACO  =    256;   APACO  = 16.0  distance and # of slots for P.C.
   PSTRESS=    0.0 pullay stress

  Mass of Ions in am
   POMASS =  95.94 32.07
  Ionic Valenz
   ZVAL   =  14.00  6.00
  Atomic Wigner-Seitz radii
   RWIGS  =  -1.00 -1.00
  virtual crystal weights 
   VCA    =   1.00  1.00
   NELECT =      52.0000    total number of electrons
   NUPDOWN=      -1.0000    fix difference up-down

 DOS related values:
   EMIN   =  10.00;   EMAX   =-10.00  energy-range for DOS
   EFERMI =   0.00
   ISMEAR =     0;   SIGMA  =   0.05  broadening in eV -4-tet -1-fermi 0-gaus

 Electronic relaxation 2 (details)
   IALGO  =     38    algorithm
   LDIAG  =      T    sub-space diagonalisation (order eigenvalues)
   LSUBROT=      F    optimize rotation matrix (better conditioning)
   TURBO    =      0    0=normal 1=particle mesh
   IRESTART =      0    0=no restart 2=restart with 2 vectors
   NREBOOT  =      0    no. of reboots
   NMIN     =      0    reboot dimension
   EREF     =   0.00    reference energy to select bands
   IMIX   =      4    mixing-type and parameters
     AMIX     =   0.40;   BMIX     =  1.00
     AMIX_MAG =   1.60;   BMIX_MAG =  1.00
     AMIN     =   0.10
     WC   =   100.;   INIMIX=   1;  MIXPRE=   1;  MAXMIX= -45

 Intra band minimization:
   WEIMIN = 0.0000     energy-eigenvalue tresh-hold
   EBREAK =  0.78E-08  absolut break condition
   DEPER  =   0.30     relativ break condition  

   TIME   =   0.40     timestep for ELM

  volume/ion in A,a.u.               =      19.68       132.79
  Fermi-wavevector in a.u.,A,eV,Ry     =   1.245571  2.353789 21.108736  1.551448
  Thomas-Fermi vector in A             =   2.379788
 
 Write flags
   LWAVE        =      T    write WAVECAR
   LDOWNSAMPLE  =      F    k-point downsampling of WAVECAR
   LCHARG       =      T    write CHGCAR
   LVTOT        =      F    write LOCPOT, total local potential
   LVHAR        =      F    write LOCPOT, Hartree potential only
   LELF         =      F    write electronic localiz. function (ELF)
   LORBIT       =      0    0 simple, 1 ext, 2 COOP (PROOUT), +10 PAW based schemes


 Dipole corrections
   LMONO  =      F    monopole corrections only (constant potential shift)
   LDIPOL =      F    correct potential (dipole corrections)
   IDIPOL =      0    1-x, 2-y, 3-z, 4-all directions 
   EPSILON=  1.0000000 bulk dielectric constant

 Exchange correlation treatment:
   GGA     =    PE    GGA type
   LEXCH   =     8    internal setting for exchange type
   VOSKOWN=      0    Vosko Wilk Nusair interpolation
   LHFCALC =     F    Hartree Fock is set to
   LHFONE  =     F    Hartree Fock one center treatment
   AEXX    =    0.0000 exact exchange contribution

 Linear response parameters
   LEPSILON=     F    determine dielectric tensor
   LRPA    =     F    only Hartree local field effects (RPA)
   LNABLA  =     F    use nabla operator in PAW spheres
   LVEL    =     F    velocity operator in full k-point grid
   LINTERFAST=   F  fast interpolation
   KINTER  =     0    interpolate to denser k-point grid
   CSHIFT  =0.1000    complex shift for real part using Kramers Kronig
   OMEGAMAX=  -1.0    maximum frequency
   DEG_THRESHOLD= 0.2000000E-02 threshold for treating states as degnerate
   RTIME   =   -0.100 relaxation time in fs
  (WPLASMAI=    0.000 imaginary part of plasma frequency in eV, 0.658/RTIME)
   DFIELD  = 0.0000000 0.0000000 0.0000000 field for delta impulse in time
 
 Orbital magnetization related:
   ORBITALMAG=     F  switch on orbital magnetization
   LCHIMAG   =     F  perturbation theory with respect to B field
   DQ        =  0.001000  dq finite difference perturbation B field
   LLRAUG    =     F  two centre corrections for induced B field



--------------------------------------------------------------------------------------------------------


 Static calculation
 charge density and potential will be updated during run
 non-spin polarized calculation
 Variant of blocked Davidson
 Davidson routine will perform the subspace rotation
 perform sub-space diagonalisation
    after iterative eigenvector-optimisation
 modified Broyden-mixing scheme, WC =      100.0
 initial mixing is a Kerker type mixing with AMIX =  0.4000 and BMIX =      1.0000
 Hartree-type preconditioning will be used
 using additional bands            6
 reciprocal scheme for non local part
 use partial core corrections
 calculate Harris-corrections to forces 
   (improved forces if not selfconsistent)
 use gradient corrections 
 use of overlap-Matrix (Vanderbilt PP)
 Gauss-broadening in eV      SIGMA  =   0.05


--------------------------------------------------------------------------------------------------------


  energy-cutoff  :      500.00
  volume of cell :      118.07
      direct lattice vectors                 reciprocal lattice vectors
     1.596118927 -2.764559076  0.000000000     0.313259865 -0.180860668  0.000000000
     1.596118927  2.764559076  0.000000000     0.313259865  0.180860668  0.000000000
     0.000000000  0.000000000 13.378293991     0.000000000  0.000000000  0.074747946

  length of vectors
     3.192237854  3.192237854 13.378293991     0.361721335  0.361721335  0.074747946


 
 k-points in units of 2pi/SCALE and weight: K-Spacing Value to Generate K-Mesh: 0.15
   0.15662993  0.00000000  0.00000000       0.500
   0.00000000  0.09043033  0.00000000       0.500
 
 k-points in reciprocal lattice and weights: K-Spacing Value to Generate K-Mesh: 0.15
   0.25000000  0.25000000  0.00000000       0.500
  -0.25000000  0.25000000  0.00000000       0.500
 
 position of ions in fractional coordinates (direct lattice) 
   0.66666667  0.33333333  0.25000000
   0.33333333  0.66666667  0.75000000
   0.66666667  0.33333333  0.43366638
   0.33333333  0.66666667  0.36691800
   0.66666667  0.33333333  0.86691800
   0.33333333  0.66666667  0.13308200
 
 position of ions in cartesian coordinates  (Angst):
   1.59611893 -0.92151969  3.34457350
   1.59611893  0.92151969 10.03372049
   1.59611893 -0.92151969  5.80171635
   1.59611893  0.92151969  4.90873687
   1.59611893 -0.92151969 11.59788387
   1.59611893  0.92151969  1.78041012
 


--------------------------------------------------------------------------------------------------------


 k-point   1 :   0.2500 0.2500 0.0000  plane waves:    3020
 k-point   2 :  -0.2500 0.2500 0.0000  plane waves:    2992

 maximum and minimum number of plane-waves per node :       768      742

 maximum number of plane-waves:      3020
 maximum index in each direction: 
   IXMAX=    6   IYMAX=    5   IZMAX=   24
   IXMIN=   -6   IYMIN=   -6   IZMIN=  -24


 parallel 3D FFT for wavefunctions:
    minimum data exchange during FFTs selected (reduces bandwidth)
 parallel 3D FFT for charge:
    minimum data exchange during FFTs selected (reduces bandwidth)


 total amount of memory used by VASP MPI-rank0    37007. kBytes
=======================================================================

   base      :      30000. kBytes
   nonl-proj :        502. kBytes
   fftplans  :       2328. kBytes
   grid      :       3750. kBytes
   one-center:         31. kBytes
   wavefun   :        396. kBytes
 
     INWAV:  cpu time    0.0000: real time    0.0001
 Broyden mixing: mesh for mixing (old mesh)
   NGX = 11   NGY = 11   NGZ = 49
  (NGX  = 48   NGY  = 48   NGZ  =196)
  gives a total of   5929 points

 initial charge density was supplied:
 charge density of overlapping atoms calculated
 number of electron      52.0000000 magnetization 
 keeping initial charge density in first step


--------------------------------------------------------------------------------------------------------


 Maximum index for augmentation-charges         2591 (set IRDMAX)


--------------------------------------------------------------------------------------------------------


 First call to EWALD:  gamma=   0.361
 Maximum number of real-space cells 4x 4x 1
 Maximum number of reciprocal cells 2x 2x 7

    FEWALD:  cpu time    0.0019: real time    0.0019


--------------------------------------- Iteration      1(   1)  ---------------------------------------


    POTLOK:  cpu time    0.0562: real time    0.0597
    SETDIJ:  cpu time    0.0055: real time    0.0055
     EDDAV:  cpu time    0.1352: real time    0.1353
       DOS:  cpu time    0.0007: real time    0.0007
    --------------------------------------------
      LOOP:  cpu time    0.1977: real time    0.2013

 eigenvalue-minimisations  :   144
 total energy-change (2. order) : 0.4437686E+03  (-0.2913095E+04)
 number of electron      52.0000000 magnetization 
 augmentation part       52.0000000 magnetization 

 Free energy of the ion-electron system (eV)
  ---------------------------------------------------
  alpha Z        PSCENC =       160.27286088
  Ewald energy   TEWEN  =     -2639.82477245
  -Hartree energ DENC   =     -2095.68557982
  -exchange      EXHF   =         0.00000000
  -V(xc)+E(xc)   XCENC  =       184.09669181
  PAW double counting   =      3865.57804258    -3815.84821480
  entropy T*S    EENTRO =        -0.01411170
  eigenvalues    EBANDS =       -46.64890150
  atomic energy  EATOM  =      4831.84262874
  Solvation  Ediel_sol  =         0.00000000
  ---------------------------------------------------
  free energy    TOTEN  =       443.76864374 eV

  energy without entropy =      443.78275544  energy(sigma->0) =      443.77569959


--------------------------------------------------------------------------------------------------------




--------------------------------------- Iteration      1(   2)  ---------------------------------------


     EDDAV:  cpu time    0.1415: real time    0.1450
       DOS:  cpu time    0.0003: real time    0.0003
    --------------------------------------------
      LOOP:  cpu time    0.1419: real time    0.1454

 eigenvalue-minimisations  :   160
 total energy-change (2. order) :-0.4569039E+03  (-0.4466315E+03)
 number of electron      52.0000000 magnetization 
 augmentation part       52.0000000 magnetization 

 Free energy of the ion-electron system (eV)
  ---------------------------------------------------
  alpha Z        PSCENC =       160.27286088
  Ewald energy   TEWEN  =     -2639.82477245
  -Hartree energ DENC   =     -2095.68557982
  -exchange      EXHF   =         0.00000000
  -V(xc)+E(xc)   XCENC  =       184.09669181
  PAW double counting   =      3865.57804258    -3815.84821480
  entropy T*S    EENTRO =        -0.00015698
  eigenvalues    EBANDS =      -503.56672598
  atomic energy  EATOM  =      4831.84262874
  Solvation  Ediel_sol  =         0.00000000
  ---------------------------------------------------
  free energy    TOTEN  =       -13.13522603 eV

  energy without entropy =      -13.13506905  energy(sigma->0) =      -13.13514754


--------------------------------------------------------------------------------------------------------




--------------------------------------- Iteration      1(   3)  ---------------------------------------


     EDDAV:  cpu time    0.1471: real time    0.1504
       DOS:  cpu time    0.0003: real time    0.0003
    --------------------------------------------
      LOOP:  cpu time    0.1473: real time    0.1507

 eigenvalue-minimisations  :   168
 total energy-change (2. order) :-0.2349859E+02  (-0.2319914E+02)
 number of electron      52.0000000 magnetization 
 augmentation part       52.0000000 magnetization 

 Free energy of the ion-electron system (eV)
  ---------------------------------------------------
  alpha Z        PSCENC =       160.27286088
  Ewald energy   TEWEN  =     -2639.82477245
  -Hartree energ DENC   =     -2095.68557982
  -exchange      EXHF   =         0.00000000
  -V(xc)+E(xc)   XCENC  =       184.09669181
  PAW double counting   =      3865.57804258    -3815.84821480
  entropy T*S    EENTRO =        -0.01382948
  eigenvalues    EBANDS =      -527.05164619
  atomic energy  EATOM  =      4831.84262874
  Solvation  Ediel_sol  =         0.00000000
  ---------------------------------------------------
  free energy    TOTEN  =       -36.63381873 eV

  energy without entropy =      -36.61998925  energy(sigma->0) =      -36.62690399


--------------------------------------------------------------------------------------------------------




--------------------------------------- Iteration      1(   4)  ---------------------------------------


     EDDAV:  cpu time    0.1468: real time    0.1513
       DOS:  cpu time    0.0003: real time    0.0003
    --------------------------------------------
      LOOP:  cpu time    0.1472: real time    0.1516

 eigenvalue-minimisations  :   168
 total energy-change (2. order) :-0.5949756E+00  (-0.5870952E+00)
 number of electron      52.0000000 magnetization 
 augmentation part       52.0000000 magnetization 

 Free energy of the ion-electron system (eV)
  ---------------------------------------------------
  alpha Z        PSCENC =       160.27286088
  Ewald energy   TEWEN  =     -2639.82477245
  -Hartree energ DENC   =     -2095.68557982
  -exchange      EXHF   =         0.00000000
  -V(xc)+E(xc)   XCENC  =       184.09669181
  PAW double counting   =      3865.57804258    -3815.84821480
  entropy T*S    EENTRO =        -0.02599114
  eigenvalues    EBANDS =      -527.63446015
  atomic energy  EATOM  =      4831.84262874
  Solvation  Ediel_sol  =         0.00000000
  ---------------------------------------------------
  free energy    TOTEN  =       -37.22879435 eV

  energy without entropy =      -37.20280321  energy(sigma->0) =      -37.21579878


--------------------------------------------------------------------------------------------------------




--------------------------------------- Iteration      1(   5)  ---------------------------------------


     EDDAV:  cpu time    0.1521: real time    0.1561
       DOS:  cpu time    0.0004: real time    0.0005
    CHARGE:  cpu time    0.0225: real time    0.0225
    MIXING:  cpu time    0.0014: real time    0.0014
    --------------------------------------------
      LOOP:  cpu time    0.1764: real time    0.1804

 eigenvalue-minimisations  :   176
 total energy-change (2. order) :-0.1887745E-01  (-0.1887203E-01)
 number of electron      51.9999991 magnetization 
 augmentation part        1.0597381 magnetization 

 Broyden mixing:
  rms(total) = 0.40090E+01    rms(broyden)= 0.40090E+01
  rms(prec ) = 0.40959E+01
  weight for this iteration     100.00

 Free energy of the ion-electron system (eV)
  ---------------------------------------------------
  alpha Z        PSCENC =       160.27286088
  Ewald energy   TEWEN  =     -2639.82477245
  -Hartree energ DENC   =     -2095.68557982
  -exchange      EXHF   =         0.00000000
  -V(xc)+E(xc)   XCENC  =       184.09669181
  PAW double counting   =      3865.57804258    -3815.84821480
  entropy T*S    EENTRO =        -0.02600585
  eigenvalues    EBANDS =      -527.65332289
  atomic energy  EATOM  =      4831.84262874
  Solvation  Ediel_sol  =         0.00000000
  ---------------------------------------------------
  free energy    TOTEN  =       -37.24767180 eV

  energy without entropy =      -37.22166595  energy(sigma->0) =      -37.23466887


--------------------------------------------------------------------------------------------------------




--------------------------------------- Iteration      1(   6)  ---------------------------------------


    POTLOK:  cpu time    0.0550: real time    0.0584
    SETDIJ:  cpu time    0.0054: real time    0.0054
     EDDAV:  cpu time    0.1405: real time    0.1428
       DOS:  cpu time    0.0003: real time    0.0003
    CHARGE:  cpu time    0.0222: real time    0.0222
    MIXING:  cpu time    0.0015: real time    0.0015
    --------------------------------------------
      LOOP:  cpu time    0.2249: real time    0.2305

 eigenvalue-minimisations  :   160
 total energy-change (2. order) : 0.1998313E+01  (-0.1412840E+01)
 number of electron      51.9999991 magnetization 
 augmentation part        1.6568596 magnetization 

 Broyden mixing:
  rms(total) = 0.26585E+01    rms(broyden)= 0.26585E+01
  rms(prec ) = 0.26984E+01
  weight for this iteration     100.00

 eigenvalues of (default mixing * dielectric matrix)
  average eigenvalue GAMMA=   1.5030
  1.5030

 Free energy of the ion-electron system (eV)
  ---------------------------------------------------
  alpha Z        PSCENC =       160.27286088
  Ewald energy   TEWEN  =     -2639.82477245
  -Hartree energ DENC   =     -2056.75120271
  -exchange      EXHF   =         0.00000000
  -V(xc)+E(xc)   XCENC  =       182.76734815
  PAW double counting   =      4973.93505877    -4929.05604592
  entropy T*S    EENTRO =        -0.00033287
  eigenvalues    EBANDS =      -558.43490090
  atomic energy  EATOM  =      4831.84262874
  Solvation  Ediel_sol  =         0.00000000
  ---------------------------------------------------
  free energy    TOTEN  =       -35.24935831 eV

  energy without entropy =      -35.24902544  energy(sigma->0) =      -35.24919188


--------------------------------------------------------------------------------------------------------




--------------------------------------- Iteration      1(   7)  ---------------------------------------


    POTLOK:  cpu time    0.0550: real time    0.0590
    SETDIJ:  cpu time    0.0053: real time    0.0053
     EDDAV:  cpu time    0.1402: real time    0.1403
       DOS:  cpu time    0.0003: real time    0.0003
    CHARGE:  cpu time    0.0222: real time    0.0222
    MIXING:  cpu time    0.0014: real time    0.0014
    --------------------------------------------
      LOOP:  cpu time    0.2244: real time    0.2285

 eigenvalue-minimisations  :   160
 total energy-change (2. order) :-0.3787365E-02  (-0.6524130E+00)
 number of electron      51.9999990 magnetization 
 augmentation part        1.5152829 magnetization 

 Broyden mixing:
  rms(total) = 0.79113E+00    rms(broyden)= 0.79113E+00
  rms(prec ) = 0.10103E+01
  weight for this iteration     100.00

 eigenvalues of (default mixing * dielectric matrix)
  average eigenvalue GAMMA=   1.3307
  0.6830  1.9785

 Free energy of the ion-electron system (eV)
  ---------------------------------------------------
  alpha Z        PSCENC =       160.27286088
  Ewald energy   TEWEN  =     -2639.82477245
  -Hartree energ DENC   =     -2079.85509022
  -exchange      EXHF   =         0.00000000
  -V(xc)+E(xc)   XCENC  =       183.02090881
  PAW double counting   =      6366.86838177    -6321.89735935
  entropy T*S    EENTRO =        -0.00019289
  eigenvalues    EBANDS =      -535.68051096
  atomic energy  EATOM  =      4831.84262874
  Solvation  Ediel_sol  =         0.00000000
  ---------------------------------------------------
  free energy    TOTEN  =       -35.25314568 eV

  energy without entropy =      -35.25295279  energy(sigma->0) =      -35.25304923


--------------------------------------------------------------------------------------------------------




--------------------------------------- Iteration      1(   8)  ---------------------------------------


    POTLOK:  cpu time    0.0567: real time    0.0604
    SETDIJ:  cpu time    0.0059: real time    0.0059
     EDDAV:  cpu time    0.1525: real time    0.1526
       DOS:  cpu time    0.0003: real time    0.0003
    CHARGE:  cpu time    0.0226: real time    0.0226
    MIXING:  cpu time    0.0015: real time    0.0015
    --------------------------------------------
      LOOP:  cpu time    0.2396: real time    0.2433

 eigenvalue-minimisations  :   176
 total energy-change (2. order) :-0.1428462E+00  (-0.1341247E+01)
 number of electron      51.9999990 magnetization 
 augmentation part        1.3318499 magnetization 

 Broyden mixing:
  rms(total) = 0.15387E+01    rms(broyden)= 0.15387E+01
  rms(prec ) = 0.22466E+01
  weight for this iteration     100.00

 eigenvalues of (default mixing * dielectric matrix)
  average eigenvalue GAMMA=   1.0267
  2.1521  0.7309  0.1971

 Free energy of the ion-electron system (eV)
  ---------------------------------------------------
  alpha Z        PSCENC =       160.27286088
  Ewald energy   TEWEN  =     -2639.82477245
  -Hartree energ DENC   =     -2067.17735063
  -exchange      EXHF   =         0.00000000
  -V(xc)+E(xc)   XCENC  =       182.84047408
  PAW double counting   =      7162.76971725    -7118.80714306
  entropy T*S    EENTRO =        -0.01768644
  eigenvalues    EBANDS =      -547.29472020
  atomic energy  EATOM  =      4831.84262874
  Solvation  Ediel_sol  =         0.00000000
  ---------------------------------------------------
  free energy    TOTEN  =       -35.39599183 eV

  energy without entropy =      -35.37830539  energy(sigma->0) =      -35.38714861


--------------------------------------------------------------------------------------------------------




--------------------------------------- Iteration      1(   9)  ---------------------------------------


    POTLOK:  cpu time    0.0555: real time    0.0585
    SETDIJ:  cpu time    0.0053: real time    0.0053
     EDDAV:  cpu time    0.1463: real time    0.1463
       DOS:  cpu time    0.0003: real time    0.0003
    CHARGE:  cpu time    0.0222: real time    0.0222
    MIXING:  cpu time    0.0015: real time    0.0015
    --------------------------------------------
      LOOP:  cpu time    0.2312: real time    0.2342

 eigenvalue-minimisations  :   168
 total energy-change (2. order) : 0.5440109E+00  (-0.1661998E+01)
 number of electron      51.9999991 magnetization 
 augmentation part        1.4943256 magnetization 

 Broyden mixing:
  rms(total) = 0.74691E+00    rms(broyden)= 0.74690E+00
  rms(prec ) = 0.77729E+00
  weight for this iteration     100.00

 eigenvalues of (default mixing * dielectric matrix)
  average eigenvalue GAMMA=   0.9316
  2.3099  0.8434  0.3344  0.2387

 Free energy of the ion-electron system (eV)
  ---------------------------------------------------
  alpha Z        PSCENC =       160.27286088
  Ewald energy   TEWEN  =     -2639.82477245
  -Hartree energ DENC   =     -2067.40804102
  -exchange      EXHF   =         0.00000000
  -V(xc)+E(xc)   XCENC  =       182.77343535
  PAW double counting   =      7376.13149847    -7332.51816365
  entropy T*S    EENTRO =        -0.00375487
  eigenvalues    EBANDS =      -546.11767239
  atomic energy  EATOM  =      4831.84262874
  Solvation  Ediel_sol  =         0.00000000
  ---------------------------------------------------
  free energy    TOTEN  =       -34.85198096 eV

  energy without entropy =      -34.84822608  energy(sigma->0) =      -34.85010352


--------------------------------------------------------------------------------------------------------




--------------------------------------- Iteration      1(  10)  ---------------------------------------


    POTLOK:  cpu time    0.0549: real time    0.0577
    SETDIJ:  cpu time    0.0054: real time    0.0054
     EDDAV:  cpu time    0.1509: real time    0.1509
       DOS:  cpu time    0.0003: real time    0.0003
    CHARGE:  cpu time    0.0223: real time    0.0224
    MIXING:  cpu time    0.0015: real time    0.0015
    --------------------------------------------
      LOOP:  cpu time    0.2353: real time    0.2381

 eigenvalue-minimisations  :   176
 total energy-change (2. order) : 0.4182280E-01  (-0.4214427E-01)
 number of electron      51.9999990 magnetization 
 augmentation part        1.6257071 magnetization 

 Broyden mixing:
  rms(total) = 0.16519E+00    rms(broyden)= 0.16518E+00
  rms(prec ) = 0.19746E+00
  weight for this iteration     100.00

 eigenvalues of (default mixing * dielectric matrix)
  average eigenvalue GAMMA=   0.9830
  2.5072  1.2361  0.6466  0.3301  0.1952

 Free energy of the ion-electron system (eV)
  ---------------------------------------------------
  alpha Z        PSCENC =       160.27286088
  Ewald energy   TEWEN  =     -2639.82477245
  -Hartree energ DENC   =     -2065.60309611
  -exchange      EXHF   =         0.00000000
  -V(xc)+E(xc)   XCENC  =       182.75776067
  PAW double counting   =      7592.58174957    -7549.21815042
  entropy T*S    EENTRO =        -0.01766386
  eigenvalues    EBANDS =      -547.60147516
  atomic energy  EATOM  =      4831.84262874
  Solvation  Ediel_sol  =         0.00000000
  ---------------------------------------------------
  free energy    TOTEN  =       -34.81015815 eV

  energy without entropy =      -34.79249429  energy(sigma->0) =      -34.80132622


--------------------------------------------------------------------------------------------------------




--------------------------------------- Iteration      1(  11)  ---------------------------------------


    POTLOK:  cpu time    0.0548: real time    0.0609
    SETDIJ:  cpu time    0.0054: real time    0.0054
     EDDAV:  cpu time    0.1400: real time    0.1400
       DOS:  cpu time    0.0004: real time    0.0004
    CHARGE:  cpu time    0.0222: real time    0.0222
    MIXING:  cpu time    0.0015: real time    0.0015
    --------------------------------------------
      LOOP:  cpu time    0.2243: real time    0.2304

 eigenvalue-minimisations  :   160
 total energy-change (2. order) : 0.1721774E-01  (-0.1765193E-01)
 number of electron      51.9999991 magnetization 
 augmentation part        1.5476387 magnetization 

 Broyden mixing:
  rms(total) = 0.57722E-01    rms(broyden)= 0.57720E-01
  rms(prec ) = 0.70302E-01
  weight for this iteration     100.00

 eigenvalues of (default mixing * dielectric matrix)
  average eigenvalue GAMMA=   0.9902
  2.2871  1.5572  0.9481  0.6370  0.3206  0.1910

 Free energy of the ion-electron system (eV)
  ---------------------------------------------------
  alpha Z        PSCENC =       160.27286088
  Ewald energy   TEWEN  =     -2639.82477245
  -Hartree energ DENC   =     -2070.71623331
  -exchange      EXHF   =         0.00000000
  -V(xc)+E(xc)   XCENC  =       182.89406025
  PAW double counting   =      7690.16509917    -7646.51835165
  entropy T*S    EENTRO =        -0.02345653
  eigenvalues    EBANDS =      -542.88477553
  atomic energy  EATOM  =      4831.84262874
  Solvation  Ediel_sol  =         0.00000000
  ---------------------------------------------------
  free energy    TOTEN  =       -34.79294042 eV

  energy without entropy =      -34.76948389  energy(sigma->0) =      -34.78121215


--------------------------------------------------------------------------------------------------------




--------------------------------------- Iteration      1(  12)  ---------------------------------------


    POTLOK:  cpu time    0.0549: real time    0.0586
    SETDIJ:  cpu time    0.0054: real time    0.0054
     EDDAV:  cpu time    0.1514: real time    0.1515
       DOS:  cpu time    0.0003: real time    0.0003
    CHARGE:  cpu time    0.0222: real time    0.0222
    MIXING:  cpu time    0.0016: real time    0.0016
    --------------------------------------------
      LOOP:  cpu time    0.2358: real time    0.2395

 eigenvalue-minimisations  :   176
 total energy-change (2. order) : 0.9951426E-04  (-0.3077374E-02)
 number of electron      51.9999991 magnetization 
 augmentation part        1.5855439 magnetization 

 Broyden mixing:
  rms(total) = 0.10866E+00    rms(broyden)= 0.10866E+00
  rms(prec ) = 0.11531E+00
  weight for this iteration     100.00

 eigenvalues of (default mixing * dielectric matrix)
  average eigenvalue GAMMA=   0.9957
  2.3948  1.4819  1.2351  0.7270  0.6371  0.1914  0.3025

 Free energy of the ion-electron system (eV)
  ---------------------------------------------------
  alpha Z        PSCENC =       160.27286088
  Ewald energy   TEWEN  =     -2639.82477245
  -Hartree energ DENC   =     -2069.88900790
  -exchange      EXHF   =         0.00000000
  -V(xc)+E(xc)   XCENC  =       182.88771735
  PAW double counting   =      7631.10547268    -7587.47851738
  entropy T*S    EENTRO =        -0.02629284
  eigenvalues    EBANDS =      -543.68292998
  atomic energy  EATOM  =      4831.84262874
  Solvation  Ediel_sol  =         0.00000000
  ---------------------------------------------------
  free energy    TOTEN  =       -34.79284090 eV

  energy without entropy =      -34.76654806  energy(sigma->0) =      -34.77969448


--------------------------------------------------------------------------------------------------------




--------------------------------------- Iteration      1(  13)  ---------------------------------------


    POTLOK:  cpu time    0.0550: real time    0.0585
    SETDIJ:  cpu time    0.0054: real time    0.0054
     EDDAV:  cpu time    0.1402: real time    0.1403
       DOS:  cpu time    0.0003: real time    0.0003
    CHARGE:  cpu time    0.0223: real time    0.0223
    MIXING:  cpu time    0.0016: real time    0.0016
    --------------------------------------------
      LOOP:  cpu time    0.2248: real time    0.2284

 eigenvalue-minimisations  :   160
 total energy-change (2. order) : 0.2922898E-06  (-0.1957545E-03)
 number of electron      51.9999991 magnetization 
 augmentation part        1.5837459 magnetization 

 Broyden mixing:
  rms(total) = 0.77618E-01    rms(broyden)= 0.77618E-01
  rms(prec ) = 0.83711E-01
  weight for this iteration     100.00

 eigenvalues of (default mixing * dielectric matrix)
  average eigenvalue GAMMA=   1.0859
  2.6687  2.0027  1.0061  1.0061  0.8782  0.6260  0.1912  0.3087

 Free energy of the ion-electron system (eV)
  ---------------------------------------------------
  alpha Z        PSCENC =       160.27286088
  Ewald energy   TEWEN  =     -2639.82477245
  -Hartree energ DENC   =     -2069.93984637
  -exchange      EXHF   =         0.00000000
  -V(xc)+E(xc)   XCENC  =       182.89284780
  PAW double counting   =      7635.49377883    -7591.87138056
  entropy T*S    EENTRO =        -0.02560609
  eigenvalues    EBANDS =      -543.63335138
  atomic energy  EATOM  =      4831.84262874
  Solvation  Ediel_sol  =         0.00000000
  ---------------------------------------------------
  free energy    TOTEN  =       -34.79284061 eV

  energy without entropy =      -34.76723452  energy(sigma->0) =      -34.78003757


--------------------------------------------------------------------------------------------------------




--------------------------------------- Iteration      1(  14)  ---------------------------------------


    POTLOK:  cpu time    0.0549: real time    0.0582
    SETDIJ:  cpu time    0.0054: real time    0.0054
     EDDAV:  cpu time    0.1506: real time    0.1506
       DOS:  cpu time    0.0003: real time    0.0003
    CHARGE:  cpu time    0.0222: real time    0.0222
    MIXING:  cpu time    0.0017: real time    0.0017
    --------------------------------------------
      LOOP:  cpu time    0.2352: real time    0.2385

 eigenvalue-minimisations  :   176
 total energy-change (2. order) : 0.3635929E-03  (-0.2345380E-03)
 number of electron      51.9999991 magnetization 
 augmentation part        1.5727633 magnetization 

 Broyden mixing:
  rms(total) = 0.20781E-01    rms(broyden)= 0.20781E-01
  rms(prec ) = 0.26896E-01
  weight for this iteration     100.00

 eigenvalues of (default mixing * dielectric matrix)
  average eigenvalue GAMMA=   1.1141
  2.7641  2.2165  1.1420  0.9594  0.9594  0.8431  0.6428  0.1912  0.3081

 Free energy of the ion-electron system (eV)
  ---------------------------------------------------
  alpha Z        PSCENC =       160.27286088
  Ewald energy   TEWEN  =     -2639.82477245
  -Hartree energ DENC   =     -2070.47442773
  -exchange      EXHF   =         0.00000000
  -V(xc)+E(xc)   XCENC  =       182.91043236
  PAW double counting   =      7634.76702923    -7591.11699201
  entropy T*S    EENTRO =        -0.02490606
  eigenvalues    EBANDS =      -543.14432998
  atomic energy  EATOM  =      4831.84262874
  Solvation  Ediel_sol  =         0.00000000
  ---------------------------------------------------
  free energy    TOTEN  =       -34.79247702 eV

  energy without entropy =      -34.76757096  energy(sigma->0) =      -34.78002399


--------------------------------------------------------------------------------------------------------




--------------------------------------- Iteration      1(  15)  ---------------------------------------


    POTLOK:  cpu time    0.0549: real time    0.0590
    SETDIJ:  cpu time    0.0054: real time    0.0054
     EDDAV:  cpu time    0.1507: real time    0.1530
       DOS:  cpu time    0.0004: real time    0.0004
    CHARGE:  cpu time    0.0222: real time    0.0222
    MIXING:  cpu time    0.0017: real time    0.0017
    --------------------------------------------
      LOOP:  cpu time    0.2353: real time    0.2416

 eigenvalue-minimisations  :   176
 total energy-change (2. order) : 0.1183301E-03  (-0.5253513E-04)
 number of electron      51.9999991 magnetization 
 augmentation part        1.5670859 magnetization 

 Broyden mixing:
  rms(total) = 0.17973E-01    rms(broyden)= 0.17972E-01
  rms(prec ) = 0.19234E-01
  weight for this iteration     100.00

 eigenvalues of (default mixing * dielectric matrix)
  average eigenvalue GAMMA=   1.0525
  2.6123  2.2669  1.1786  0.9689  0.9689  0.1912  0.3081  0.7648  0.6327  0.6327

 Free energy of the ion-electron system (eV)
  ---------------------------------------------------
  alpha Z        PSCENC =       160.27286088
  Ewald energy   TEWEN  =     -2639.82477245
  -Hartree energ DENC   =     -2070.58421653
  -exchange      EXHF   =         0.00000000
  -V(xc)+E(xc)   XCENC  =       182.91474413
  PAW double counting   =      7637.07913281    -7593.42524889
  entropy T*S    EENTRO =        -0.02386550
  eigenvalues    EBANDS =      -543.04362188
  atomic energy  EATOM  =      4831.84262874
  Solvation  Ediel_sol  =         0.00000000
  ---------------------------------------------------
  free energy    TOTEN  =       -34.79235869 eV

  energy without entropy =      -34.76849318  energy(sigma->0) =      -34.78042594


--------------------------------------------------------------------------------------------------------




--------------------------------------- Iteration      1(  16)  ---------------------------------------


    POTLOK:  cpu time    0.0549: real time    0.0583
    SETDIJ:  cpu time    0.0053: real time    0.0053
     EDDAV:  cpu time    0.1344: real time    0.1345
       DOS:  cpu time    0.0003: real time    0.0003
    CHARGE:  cpu time    0.0222: real time    0.0222
    MIXING:  cpu time    0.0018: real time    0.0018
    --------------------------------------------
      LOOP:  cpu time    0.2190: real time    0.2224

 eigenvalue-minimisations  :   152
 total energy-change (2. order) : 0.6230403E-04  (-0.6628473E-05)
 number of electron      51.9999991 magnetization 
 augmentation part        1.5667852 magnetization 

 Broyden mixing:
  rms(total) = 0.16487E-01    rms(broyden)= 0.16487E-01
  rms(prec ) = 0.17314E-01
  weight for this iteration     100.00

 eigenvalues of (default mixing * dielectric matrix)
  average eigenvalue GAMMA=   1.1673
  2.8144  2.2491  1.4935  1.4935  1.1353  0.8585  0.8585  0.7916  0.6463  0.1912
  0.3081

 Free energy of the ion-electron system (eV)
  ---------------------------------------------------
  alpha Z        PSCENC =       160.27286088
  Ewald energy   TEWEN  =     -2639.82477245
  -Hartree energ DENC   =     -2070.59825852
  -exchange      EXHF   =         0.00000000
  -V(xc)+E(xc)   XCENC  =       182.91433201
  PAW double counting   =      7635.94599202    -7592.29178944
  entropy T*S    EENTRO =        -0.02382469
  eigenvalues    EBANDS =      -543.02946493
  atomic energy  EATOM  =      4831.84262874
  Solvation  Ediel_sol  =         0.00000000
  ---------------------------------------------------
  free energy    TOTEN  =       -34.79229638 eV

  energy without entropy =      -34.76847169  energy(sigma->0) =      -34.78038404


--------------------------------------------------------------------------------------------------------




--------------------------------------- Iteration      1(  17)  ---------------------------------------


    POTLOK:  cpu time    0.0549: real time    0.0593
    SETDIJ:  cpu time    0.0054: real time    0.0054
     EDDAV:  cpu time    0.1501: real time    0.1501
       DOS:  cpu time    0.0003: real time    0.0003
    CHARGE:  cpu time    0.0221: real time    0.0221
    MIXING:  cpu time    0.0018: real time    0.0018
    --------------------------------------------
      LOOP:  cpu time    0.2347: real time    0.2391

 eigenvalue-minimisations  :   176
 total energy-change (2. order) : 0.5370987E-04  (-0.2370596E-04)
 number of electron      51.9999991 magnetization 
 augmentation part        1.5669238 magnetization 

 Broyden mixing:
  rms(total) = 0.73771E-02    rms(broyden)= 0.73771E-02
  rms(prec ) = 0.76389E-02
  weight for this iteration     100.00

 eigenvalues of (default mixing * dielectric matrix)
  average eigenvalue GAMMA=   1.1809
  2.4398  2.4398  1.6607  1.6607  0.1912  0.3081  1.1849  1.1537  0.8873  0.8873
  0.6484  0.7094

 Free energy of the ion-electron system (eV)
  ---------------------------------------------------
  alpha Z        PSCENC =       160.27286088
  Ewald energy   TEWEN  =     -2639.82477245
  -Hartree energ DENC   =     -2070.67511519
  -exchange      EXHF   =         0.00000000
  -V(xc)+E(xc)   XCENC  =       182.91562092
  PAW double counting   =      7639.21410455    -7595.56152916
  entropy T*S    EENTRO =        -0.02379011
  eigenvalues    EBANDS =      -542.95225085
  atomic energy  EATOM  =      4831.84262874
  Solvation  Ediel_sol  =         0.00000000
  ---------------------------------------------------
  free energy    TOTEN  =       -34.79224267 eV

  energy without entropy =      -34.76845256  energy(sigma->0) =      -34.78034762


--------------------------------------------------------------------------------------------------------




--------------------------------------- Iteration      1(  18)  ---------------------------------------


    POTLOK:  cpu time    0.0550: real time    0.0590
    SETDIJ:  cpu time    0.0054: real time    0.0054
     EDDAV:  cpu time    0.1297: real time    0.1298
       DOS:  cpu time    0.0003: real time    0.0003
    CHARGE:  cpu time    0.0221: real time    0.0221
    MIXING:  cpu time    0.0019: real time    0.0019
    --------------------------------------------
      LOOP:  cpu time    0.2144: real time    0.2185

 eigenvalue-minimisations  :   144
 total energy-change (2. order) :-0.2601490E-05  (-0.2323911E-05)
 number of electron      51.9999991 magnetization 
 augmentation part        1.5668876 magnetization 

 Broyden mixing:
  rms(total) = 0.62409E-02    rms(broyden)= 0.62409E-02
  rms(prec ) = 0.64972E-02
  weight for this iteration     100.00

 eigenvalues of (default mixing * dielectric matrix)
  average eigenvalue GAMMA=   1.1949
  2.8541  2.3146  1.5475  1.5475  1.4010  1.4010  0.1912  0.3081  0.9179  0.9179
  0.7454  0.7454  0.6419

 Free energy of the ion-electron system (eV)
  ---------------------------------------------------
  alpha Z        PSCENC =       160.27286088
  Ewald energy   TEWEN  =     -2639.82477245
  -Hartree energ DENC   =     -2070.68866037
  -exchange      EXHF   =         0.00000000
  -V(xc)+E(xc)   XCENC  =       182.91548051
  PAW double counting   =      7638.47852256    -7594.82684400
  entropy T*S    EENTRO =        -0.02375055
  eigenvalues    EBANDS =      -542.93771060
  atomic energy  EATOM  =      4831.84262874
  Solvation  Ediel_sol  =         0.00000000
  ---------------------------------------------------
  free energy    TOTEN  =       -34.79224528 eV

  energy without entropy =      -34.76849473  energy(sigma->0) =      -34.78037000


--------------------------------------------------------------------------------------------------------




--------------------------------------- Iteration      1(  19)  ---------------------------------------


    POTLOK:  cpu time    0.0558: real time    0.0587
    SETDIJ:  cpu time    0.0058: real time    0.0058
     EDDAV:  cpu time    0.1446: real time    0.1470
       DOS:  cpu time    0.0003: real time    0.0003
    CHARGE:  cpu time    0.0224: real time    0.0224
    MIXING:  cpu time    0.0021: real time    0.0021
    --------------------------------------------
      LOOP:  cpu time    0.2311: real time    0.2364

 eigenvalue-minimisations  :   160
 total energy-change (2. order) :-0.2973111E-05  (-0.3458597E-05)
 number of electron      51.9999991 magnetization 
 augmentation part        1.5675606 magnetization 

 Broyden mixing:
  rms(total) = 0.10511E-02    rms(broyden)= 0.10510E-02
  rms(prec ) = 0.11642E-02
  weight for this iteration     100.00

 eigenvalues of (default mixing * dielectric matrix)
  average eigenvalue GAMMA=   1.2643
  2.5454  2.3814  2.3814  1.8046  1.8046  1.2866  0.1912  0.3081  1.0118  1.0118
  0.7969  0.7969  0.6438  0.7354

 Free energy of the ion-electron system (eV)
  ---------------------------------------------------
  alpha Z        PSCENC =       160.27286088
  Ewald energy   TEWEN  =     -2639.82477245
  -Hartree energ DENC   =     -2070.73043968
  -exchange      EXHF   =         0.00000000
  -V(xc)+E(xc)   XCENC  =       182.91657123
  PAW double counting   =      7640.40142750    -7596.75053853
  entropy T*S    EENTRO =        -0.02383672
  eigenvalues    EBANDS =      -542.89614922
  atomic energy  EATOM  =      4831.84262874
  Solvation  Ediel_sol  =         0.00000000
  ---------------------------------------------------
  free energy    TOTEN  =       -34.79224825 eV

  energy without entropy =      -34.76841153  energy(sigma->0) =      -34.78032989


--------------------------------------------------------------------------------------------------------




--------------------------------------- Iteration      1(  20)  ---------------------------------------


    POTLOK:  cpu time    0.0561: real time    0.0579
    SETDIJ:  cpu time    0.0054: real time    0.0054
     EDDAV:  cpu time    0.1184: real time    0.1185
       DOS:  cpu time    0.0003: real time    0.0003
    --------------------------------------------
      LOOP:  cpu time    0.1802: real time    0.1821

 eigenvalue-minimisations  :   128
 total energy-change (2. order) :-0.9848218E-06  (-0.5282743E-06)
 number of electron      51.9999991 magnetization 
 augmentation part        1.5675606 magnetization 

 Free energy of the ion-electron system (eV)
  ---------------------------------------------------
  alpha Z        PSCENC =       160.27286088
  Ewald energy   TEWEN  =     -2639.82477245
  -Hartree energ DENC   =     -2070.74298807
  -exchange      EXHF   =         0.00000000
  -V(xc)+E(xc)   XCENC  =       182.91697770
  PAW double counting   =      7639.89961578    -7596.24820428
  entropy T*S    EENTRO =        -0.02384501
  eigenvalues    EBANDS =      -542.88452252
  atomic energy  EATOM  =      4831.84262874
  Solvation  Ediel_sol  =         0.00000000
  ---------------------------------------------------
  free energy    TOTEN  =       -34.79224923 eV

  energy without entropy =      -34.76840422  energy(sigma->0) =      -34.78032673


--------------------------------------------------------------------------------------------------------




 average (electrostatic) potential at core
  the test charge radii are     1.0818  0.9698
  (the norm of the test charge is              1.0000)
       1 -75.4563       2 -74.8063       3 -87.5128       4 -88.1013       5 -84.9002
       6 -85.3766
 
 
 
 E-fermi :   7.1543     XC(G=0): -10.0921     alpha+bet :-12.2268

 Fermi energy:         7.1542857858

 k-point     1 :       0.2500    0.2500    0.0000
  band No.  band energies     occupation 
      1     -54.7410      2.00000
      2     -53.9884      2.00000
      3     -29.0929      2.00000
      4     -29.0115      2.00000
      5     -28.8630      2.00000
      6     -28.1544      2.00000
      7     -28.1002      2.00000
      8     -28.0302      2.00000
      9     -11.7139      2.00000
     10      -8.5416      2.00000
     11      -6.2071      2.00000
     12      -5.4955      2.00000
     13      -3.9651      2.00000
     14      -1.7940      2.00000
     15       0.2355      2.00000
     16       1.3702      2.00000
     17       1.9357      2.00000
     18       2.4623      2.00000
     19       3.2051      2.00000
     20       3.3231      2.00000
     21       3.7306      2.00000
     22       3.9097      2.00000
     23       5.4622      2.00000
     24       5.9414      2.00000
     25       6.3094      2.00000
     26       7.1338      1.43795
     27       7.5470      0.00000
     28       8.0620      0.00000
     29       8.5682      0.00000
     30       8.6855      0.00000
     31       8.8728      0.00000
     32       9.8507      0.00000

 k-point     2 :      -0.2500    0.2500    0.0000
  band No.  band energies     occupation 
      1     -54.7595      2.00000
      2     -54.0050      2.00000
      3     -29.1342      2.00000
      4     -28.8956      2.00000
      5     -28.7487      2.00000
      6     -28.1306      2.00000
      7     -28.0527      2.00000
      8     -27.9306      2.00000
      9     -13.4478      2.00000
     10      -6.9659      2.00000
     11      -6.2178      2.00000
     12      -6.0604      2.00000
     13      -2.6554      2.00000
     14      -1.6229      2.00000
     15       0.6508      2.00000
     16       2.0901      2.00000
     17       2.3790      2.00000
     18       2.5992      2.00000
     19       3.2398      2.00000
     20       3.7686      2.00000
     21       3.7732      2.00000
     22       4.6619      2.00000
     23       5.2597      2.00000
     24       5.6676      2.00000
     25       6.0341      2.00000
     26       6.2864      2.00000
     27       7.1748      0.56205
     28       7.6427      0.00000
     29       7.8231      0.00000
     30       8.3257      0.00000
     31       8.7374      0.00000
     32       8.9051      0.00000


--------------------------------------------------------------------------------------------------------


 soft charge-density along one line, spin component           1
         0         1         2         3         4         5         6         7         8         9
 total charge-density along one line
 
 pseudopotential strength for first ion, spin component:           1
 -5.159  11.342   0.000  -0.028  -0.000  -0.000   0.030   0.000
 11.342   3.276  -0.000   0.023   0.000   0.000  -0.005  -0.000
  0.000  -0.000 -18.042   0.000   0.000   8.844  -0.000  -0.000
 -0.028   0.023   0.000 -18.066  -0.000  -0.000   8.874   0.000
 -0.000   0.000   0.000  -0.000 -18.042  -0.000   0.000   8.844
 -0.000   0.000   8.844  -0.000  -0.000   5.800   0.000   0.000
  0.030  -0.005  -0.000   8.874   0.000   0.000   5.786  -0.000
  0.000  -0.000  -0.000   0.000   8.844   0.000  -0.000   5.800
  0.000  -0.000  -0.000   0.000   0.007   0.000  -0.000  -0.004
  0.000  -0.000  -0.025   0.000   0.000   0.015  -0.000  -0.000
 -0.018   0.012  -0.000  -0.030   0.000   0.000   0.019  -0.000
 -0.000   0.000   0.000  -0.000  -0.025  -0.000   0.000   0.015
 -0.000   0.000   0.007   0.000  -0.000  -0.004  -0.000   0.000
  0.000  -0.000  -0.000   0.000   0.007   0.000  -0.000  -0.004
  0.000  -0.000  -0.026   0.000   0.000   0.016  -0.000  -0.000
 -0.019   0.012  -0.000  -0.030   0.000   0.000   0.019  -0.000
 -0.000   0.000   0.000  -0.000  -0.026  -0.000   0.000   0.016
 -0.000   0.000   0.007   0.000  -0.000  -0.004  -0.000   0.000
 total augmentation occupancy for first ion, spin component:           1
  1.997  -0.031   0.000   0.001   0.000   0.000   0.002   0.000  -0.000   0.000   0.012   0.000   0.000  -0.000   0.000  -0.010
 -0.031   1.153   0.000   0.022  -0.000   0.000  -0.039  -0.000   0.000   0.000  -0.372   0.000  -0.000  -0.000   0.000   0.365
  0.000   0.000   2.000   0.000  -0.000  -0.035   0.000  -0.000  -0.000  -0.004   0.000   0.000   0.008   0.000   0.009   0.000
  0.001   0.022   0.000   2.000  -0.000   0.000  -0.036  -0.000   0.000   0.000  -0.005  -0.000  -0.000   0.000   0.000   0.012
  0.000  -0.000  -0.000  -0.000   2.000  -0.000  -0.000  -0.035   0.008   0.000  -0.000  -0.004   0.000   0.000   0.000  -0.000
  0.000   0.000  -0.035   0.000   0.000   0.093   0.000   0.000   0.000   0.003   0.000  -0.000   0.174  -0.000   0.006  -0.000
  0.002  -0.039   0.000  -0.036   0.000   0.000   0.111   0.000  -0.000   0.000  -0.167  -0.000  -0.000   0.000   0.000   0.155
  0.000  -0.000  -0.000  -0.000  -0.035   0.000   0.000   0.093   0.174  -0.000   0.000   0.003   0.000  -0.193   0.000  -0.000
 -0.000   0.000  -0.000   0.000   0.008   0.000  -0.000   0.174   2.898   0.000   0.000  -0.486   0.000  -3.253   0.000   0.000
  0.000   0.000  -0.004   0.000   0.000   0.003   0.000  -0.000   0.000   5.306  -0.000  -0.000  -0.486   0.000  -6.058   0.000
  0.012  -0.372   0.000  -0.005  -0.000   0.000  -0.167   0.000   0.000  -0.000   4.389  -0.000   0.000  -0.000   0.000  -4.651
  0.000   0.000   0.000  -0.000  -0.004   0.000  -0.000   0.003  -0.486  -0.000  -0.000   5.306   0.000   0.252  -0.000  -0.000
  0.000  -0.000   0.008  -0.000   0.000   0.174  -0.000  -0.000   0.000  -0.486   0.000   0.000   2.898   0.000   0.257  -0.000
 -0.000  -0.000   0.000   0.000   0.000  -0.000   0.000  -0.193  -3.253   0.000  -0.000   0.252   0.000   4.437  -0.000   0.000
  0.000   0.000   0.009   0.000   0.000   0.006   0.000   0.000   0.000  -6.058   0.000  -0.000   0.257   0.000   7.523  -0.000
 -0.010   0.365   0.000   0.012  -0.000  -0.000   0.155  -0.000   0.000   0.000  -4.651  -0.000  -0.000   0.000  -0.000   5.725
 -0.000  -0.000   0.000   0.000   0.009  -0.000   0.000   0.006   0.257   0.000  -0.000  -6.058  -0.000  -0.093  -0.000   0.000
 -0.000   0.000   0.000   0.000  -0.000  -0.193   0.000   0.000  -0.000   0.252  -0.000  -0.000  -3.253   0.000  -0.093   0.000


------------------------ aborting loop because EDIFF is reached ----------------------------------------


    CHARGE:  cpu time    0.0222: real time    0.0222
    FORLOC:  cpu time    0.0047: real time    0.0047
    FORNL :  cpu time    0.0356: real time    0.0356
    STRESS:  cpu time    0.0887: real time    0.0887
    FORCOR:  cpu time    0.0590: real time    0.0590
    FORHAR:  cpu time    0.0145: real time    0.0145
    MIXING:  cpu time    0.0021: real time    0.0021
    OFIELD:  cpu time    0.0000: real time    0.0000

  FORCE on cell =-STRESS in cart. coord.  units (eV):
  Direction    XX          YY          ZZ          XY          YZ          ZX
  --------------------------------------------------------------------------------------
  Alpha Z   160.27286   160.27286   160.27286
  Ewald     147.21428   147.21427 -2934.25659     0.00000     0.00000     0.00000
  Hartree  1559.27622  1559.27622 -1047.80316     0.00000     0.00000    -0.00000
  E(xc)    -220.30061  -220.30061  -221.08967    -0.00000     0.00000     0.00000
  Local   -2714.56515 -2714.56510  2970.66740     0.00000    -0.00000    -0.00000
  n-local   229.34297   242.32289   239.19873     0.00000     0.65824     0.00000
  augment    -1.99404    -1.99409    -3.15053     0.00000    -0.00000    -0.00000
  Kinetic   841.27968   846.41738   837.69025     0.00000     6.15509     0.00000
  Fock        0.00000     0.00000     0.00000     0.00000     0.00000     0.00000
  -------------------------------------------------------------------------------------
  Total       9.58502     9.58502     1.52930    -0.00000    -0.00000    -0.00000
  in kB     130.07132   130.07132    20.75296    -0.00000    -0.00000    -0.00000
  external pressure =       93.63 kB  Pullay stress =        0.00 kB


 VOLUME and BASIS-vectors are now :
 -----------------------------------------------------------------------------
  energy-cutoff  :      500.00
  volume of cell :      118.07
      direct lattice vectors                 reciprocal lattice vectors
     1.596118927 -2.764559076  0.000000000     0.313259865 -0.180860668  0.000000000
     1.596118927  2.764559076  0.000000000     0.313259865  0.180860668  0.000000000
     0.000000000  0.000000000 13.378293991     0.000000000  0.000000000  0.074747946

  length of vectors
     3.192237854  3.192237854 13.378293991     0.361721335  0.361721335  0.074747946


 FORCES acting on ions
    electron-ion (+dipol)            ewald-force                    non-local-force                 convergence-correction
 -----------------------------------------------------------------------------------------------
   -.194E-08 0.338E-05 0.359E+03   -.471E-13 0.503E-06 -.363E+03   -.347E-17 -.555E-16 0.500E+01   0.473E-13 0.149E-09 -.688E-02
   0.155E-07 -.344E-05 0.286E+03   -.103E-13 -.252E-06 -.278E+03   -.260E-17 -.867E-17 -.650E+01   -.245E-13 0.100E-08 -.325E-02
   -.180E-06 0.882E-06 -.553E+03   -.284E-14 0.343E-06 0.562E+03   -.167E-15 0.000E+00 -.375E+01   0.777E-14 0.110E-07 0.563E-02
   -.554E-08 -.697E-06 -.380E+03   0.205E-13 -.593E-06 0.375E+03   0.111E-15 0.222E-15 -.153E+01   -.962E-14 -.542E-08 -.118E-02
   -.848E-07 0.883E-06 -.265E+03   -.471E-14 0.253E-06 0.270E+03   0.139E-16 -.278E-16 -.618E+01   0.161E-13 0.105E-08 -.279E-02
   0.747E-07 -.892E-06 0.561E+03   0.146E-13 -.253E-06 -.566E+03   0.000E+00 0.139E-16 0.490E+01   -.182E-13 -.174E-08 0.318E-03
 -----------------------------------------------------------------------------------------------
   -.182E-06 0.115E-06 0.807E+01   -.299E-13 0.634E-14 -.114E-12   -.477E-16 0.144E-15 -.806E+01   0.188E-13 0.603E-08 -.815E-02
 
 
 POSITION                                       TOTAL-FORCE (eV/Angst)
 -----------------------------------------------------------------------------------
      1.59612     -0.92152      3.34457        -0.000000      0.000000      0.739581
      1.59612      0.92152     10.03372         0.000000     -0.000000      1.207809
      1.59612     -0.92152      5.80172        -0.000000      0.000000      5.270119
      1.59612      0.92152      4.90874         0.000000      0.000000     -5.692464
      1.59612     -0.92152     11.59788        -0.000000     -0.000000     -1.320455
      1.59612      0.92152      1.78041        -0.000000     -0.000000     -0.204589
 -----------------------------------------------------------------------------------
    total drift:                               -0.000000      0.000000      0.000051


--------------------------------------------------------------------------------------------------------



  FREE ENERGIE OF THE ION-ELECTRON SYSTEM (eV)
  ---------------------------------------------------
  free  energy   TOTEN  =       -34.79224923 eV

  energy  without entropy=      -34.76840422  energy(sigma->0) =      -34.78032673
 


--------------------------------------------------------------------------------------------------------


    POTLOK:  cpu time    0.0609: real time    0.0609


--------------------------------------------------------------------------------------------------------


 stress matrix after NEB project (eV)
      9.58502     -0.00000     -0.00000
     -0.00000      9.58502     -0.00000
     -0.00000     -0.00000      1.52930
  FORCES: max atom, RMS     5.692464    3.265209
  FORCE total and by dimension    7.998096    5.692464
  Stress total and by dimension   13.641253    9.585016
 writing wavefunctions
     LOOP+:  cpu time    5.3044: real time    5.3980
    4ORBIT:  cpu time    0.0000: real time    0.0000

 total amount of memory used by VASP MPI-rank0    37007. kBytes
=======================================================================

   base      :      30000. kBytes
   nonl-proj :        502. kBytes
   fftplans  :       2328. kBytes
   grid      :       3750. kBytes
   one-center:         31. kBytes
   wavefun   :        396. kBytes
 
  
  
 General timing and accounting informations for this job:
 ========================================================
  
                  Total CPU time used (sec):        6.883
                            User time (sec):        6.100
                          System time (sec):        0.783
                         Elapsed time (sec):        7.441
  
                   Maximum memory used (kb):      122616.
                   Average memory used (kb):          N/A
  
                          Minor page faults:        22753
                          Major page faults:            0
                 Voluntary context switches:          942
