# 2H-MoS2 monolayer 10x10 supercell -- EXACT Ryan-DFT VASP parameters
# Cooper & Marianetti 2014, Phys. Rev. B 90, 167401
# a_0 = 3.183 Å, h_S (Mo-to-S vertical) = 1.564 Å

300 atoms
2 atom types

0.0000000000  31.8300000000  xlo xhi
0.0000000000  27.5655886025  ylo yhi
-25.0000000000  25.0000000000  zlo zhi

Masses

1 95.94     # Mo
2 32.065    # S

Atoms  # charge

      1  1  0.0000    0.00000000    0.00000000    0.00000000
      2  2  0.0000    1.59150000    0.91885295    1.56400000
      3  2  0.0000    1.59150000    0.91885295   -1.56400000
      4  1  0.0000    1.59150000    2.75655886    0.00000000
      5  2  0.0000    3.18300000    3.67541181    1.56400000
      6  2  0.0000    3.18300000    3.67541181   -1.56400000
      7  1  0.0000    3.18300000    5.51311772    0.00000000
      8  2  0.0000    4.77450000    6.43197067    1.56400000
      9  2  0.0000    4.77450000    6.43197067   -1.56400000
     10  1  0.0000    4.77450000    8.26967658    0.00000000
     11  2  0.0000    6.36600000    9.18852953    1.56400000
     12  2  0.0000    6.36600000    9.18852953   -1.56400000
     13  1  0.0000    6.36600000   11.02623544    0.00000000
     14  2  0.0000    7.95750000   11.94508839    1.56400000
     15  2  0.0000    7.95750000   11.94508839   -1.56400000
     16  1  0.0000    7.95750000   13.78279430    0.00000000
     17  2  0.0000    9.54900000   14.70164725    1.56400000
     18  2  0.0000    9.54900000   14.70164725   -1.56400000
     19  1  0.0000    9.54900000   16.53935316    0.00000000
     20  2  0.0000   11.14050000   17.45820611    1.56400000
     21  2  0.0000   11.14050000   17.45820611   -1.56400000
     22  1  0.0000   11.14050000   19.29591202    0.00000000
     23  2  0.0000   12.73200000   20.21476498    1.56400000
     24  2  0.0000   12.73200000   20.21476498   -1.56400000
     25  1  0.0000   12.73200000   22.05247088    0.00000000
     26  2  0.0000   14.32350000   22.97132384    1.56400000
     27  2  0.0000   14.32350000   22.97132384   -1.56400000
     28  1  0.0000   14.32350000   24.80902974    0.00000000
     29  2  0.0000   15.91500000   25.72788270    1.56400000
     30  2  0.0000   15.91500000   25.72788270   -1.56400000
     31  1  0.0000    3.18300000    0.00000000    0.00000000
     32  2  0.0000    4.77450000    0.91885295    1.56400000
     33  2  0.0000    4.77450000    0.91885295   -1.56400000
     34  1  0.0000    4.77450000    2.75655886    0.00000000
     35  2  0.0000    6.36600000    3.67541181    1.56400000
     36  2  0.0000    6.36600000    3.67541181   -1.56400000
     37  1  0.0000    6.36600000    5.51311772    0.00000000
     38  2  0.0000    7.95750000    6.43197067    1.56400000
     39  2  0.0000    7.95750000    6.43197067   -1.56400000
     40  1  0.0000    7.95750000    8.26967658    0.00000000
     41  2  0.0000    9.54900000    9.18852953    1.56400000
     42  2  0.0000    9.54900000    9.18852953   -1.56400000
     43  1  0.0000    9.54900000   11.02623544    0.00000000
     44  2  0.0000   11.14050000   11.94508839    1.56400000
     45  2  0.0000   11.14050000   11.94508839   -1.56400000
     46  1  0.0000   11.14050000   13.78279430    0.00000000
     47  2  0.0000   12.73200000   14.70164725    1.56400000
     48  2  0.0000   12.73200000   14.70164725   -1.56400000
     49  1  0.0000   12.73200000   16.53935316    0.00000000
     50  2  0.0000   14.32350000   17.45820611    1.56400000
     51  2  0.0000   14.32350000   17.45820611   -1.56400000
     52  1  0.0000   14.32350000   19.29591202    0.00000000
     53  2  0.0000   15.91500000   20.21476498    1.56400000
     54  2  0.0000   15.91500000   20.21476498   -1.56400000
     55  1  0.0000   15.91500000   22.05247088    0.00000000
     56  2  0.0000   17.50650000   22.97132384    1.56400000
     57  2  0.0000   17.50650000   22.97132384   -1.56400000
     58  1  0.0000   17.50650000   24.80902974    0.00000000
     59  2  0.0000   19.09800000   25.72788270    1.56400000
     60  2  0.0000   19.09800000   25.72788270   -1.56400000
     61  1  0.0000    6.36600000    0.00000000    0.00000000
     62  2  0.0000    7.95750000    0.91885295    1.56400000
     63  2  0.0000    7.95750000    0.91885295   -1.56400000
     64  1  0.0000    7.95750000    2.75655886    0.00000000
     65  2  0.0000    9.54900000    3.67541181    1.56400000
     66  2  0.0000    9.54900000    3.67541181   -1.56400000
     67  1  0.0000    9.54900000    5.51311772    0.00000000
     68  2  0.0000   11.14050000    6.43197067    1.56400000
     69  2  0.0000   11.14050000    6.43197067   -1.56400000
     70  1  0.0000   11.14050000    8.26967658    0.00000000
     71  2  0.0000   12.73200000    9.18852953    1.56400000
     72  2  0.0000   12.73200000    9.18852953   -1.56400000
     73  1  0.0000   12.73200000   11.02623544    0.00000000
     74  2  0.0000   14.32350000   11.94508839    1.56400000
     75  2  0.0000   14.32350000   11.94508839   -1.56400000
     76  1  0.0000   14.32350000   13.78279430    0.00000000
     77  2  0.0000   15.91500000   14.70164725    1.56400000
     78  2  0.0000   15.91500000   14.70164725   -1.56400000
     79  1  0.0000   15.91500000   16.53935316    0.00000000
     80  2  0.0000   17.50650000   17.45820611    1.56400000
     81  2  0.0000   17.50650000   17.45820611   -1.56400000
     82  1  0.0000   17.50650000   19.29591202    0.00000000
     83  2  0.0000   19.09800000   20.21476498    1.56400000
     84  2  0.0000   19.09800000   20.21476498   -1.56400000
     85  1  0.0000   19.09800000   22.05247088    0.00000000
     86  2  0.0000   20.68950000   22.97132384    1.56400000
     87  2  0.0000   20.68950000   22.97132384   -1.56400000
     88  1  0.0000   20.68950000   24.80902974    0.00000000
     89  2  0.0000   22.28100000   25.72788270    1.56400000
     90  2  0.0000   22.28100000   25.72788270   -1.56400000
     91  1  0.0000    9.54900000    0.00000000    0.00000000
     92  2  0.0000   11.14050000    0.91885295    1.56400000
     93  2  0.0000   11.14050000    0.91885295   -1.56400000
     94  1  0.0000   11.14050000    2.75655886    0.00000000
     95  2  0.0000   12.73200000    3.67541181    1.56400000
     96  2  0.0000   12.73200000    3.67541181   -1.56400000
     97  1  0.0000   12.73200000    5.51311772    0.00000000
     98  2  0.0000   14.32350000    6.43197067    1.56400000
     99  2  0.0000   14.32350000    6.43197067   -1.56400000
    100  1  0.0000   14.32350000    8.26967658    0.00000000
    101  2  0.0000   15.91500000    9.18852953    1.56400000
    102  2  0.0000   15.91500000    9.18852953   -1.56400000
    103  1  0.0000   15.91500000   11.02623544    0.00000000
    104  2  0.0000   17.50650000   11.94508839    1.56400000
    105  2  0.0000   17.50650000   11.94508839   -1.56400000
    106  1  0.0000   17.50650000   13.78279430    0.00000000
    107  2  0.0000   19.09800000   14.70164725    1.56400000
    108  2  0.0000   19.09800000   14.70164725   -1.56400000
    109  1  0.0000   19.09800000   16.53935316    0.00000000
    110  2  0.0000   20.68950000   17.45820611    1.56400000
    111  2  0.0000   20.68950000   17.45820611   -1.56400000
    112  1  0.0000   20.68950000   19.29591202    0.00000000
    113  2  0.0000   22.28100000   20.21476498    1.56400000
    114  2  0.0000   22.28100000   20.21476498   -1.56400000
    115  1  0.0000   22.28100000   22.05247088    0.00000000
    116  2  0.0000   23.87250000   22.97132384    1.56400000
    117  2  0.0000   23.87250000   22.97132384   -1.56400000
    118  1  0.0000   23.87250000   24.80902974    0.00000000
    119  2  0.0000   25.46400000   25.72788270    1.56400000
    120  2  0.0000   25.46400000   25.72788270   -1.56400000
    121  1  0.0000   12.73200000    0.00000000    0.00000000
    122  2  0.0000   14.32350000    0.91885295    1.56400000
    123  2  0.0000   14.32350000    0.91885295   -1.56400000
    124  1  0.0000   14.32350000    2.75655886    0.00000000
    125  2  0.0000   15.91500000    3.67541181    1.56400000
    126  2  0.0000   15.91500000    3.67541181   -1.56400000
    127  1  0.0000   15.91500000    5.51311772    0.00000000
    128  2  0.0000   17.50650000    6.43197067    1.56400000
    129  2  0.0000   17.50650000    6.43197067   -1.56400000
    130  1  0.0000   17.50650000    8.26967658    0.00000000
    131  2  0.0000   19.09800000    9.18852953    1.56400000
    132  2  0.0000   19.09800000    9.18852953   -1.56400000
    133  1  0.0000   19.09800000   11.02623544    0.00000000
    134  2  0.0000   20.68950000   11.94508839    1.56400000
    135  2  0.0000   20.68950000   11.94508839   -1.56400000
    136  1  0.0000   20.68950000   13.78279430    0.00000000
    137  2  0.0000   22.28100000   14.70164725    1.56400000
    138  2  0.0000   22.28100000   14.70164725   -1.56400000
    139  1  0.0000   22.28100000   16.53935316    0.00000000
    140  2  0.0000   23.87250000   17.45820611    1.56400000
    141  2  0.0000   23.87250000   17.45820611   -1.56400000
    142  1  0.0000   23.87250000   19.29591202    0.00000000
    143  2  0.0000   25.46400000   20.21476498    1.56400000
    144  2  0.0000   25.46400000   20.21476498   -1.56400000
    145  1  0.0000   25.46400000   22.05247088    0.00000000
    146  2  0.0000   27.05550000   22.97132384    1.56400000
    147  2  0.0000   27.05550000   22.97132384   -1.56400000
    148  1  0.0000   27.05550000   24.80902974    0.00000000
    149  2  0.0000   28.64700000   25.72788270    1.56400000
    150  2  0.0000   28.64700000   25.72788270   -1.56400000
    151  1  0.0000   15.91500000    0.00000000    0.00000000
    152  2  0.0000   17.50650000    0.91885295    1.56400000
    153  2  0.0000   17.50650000    0.91885295   -1.56400000
    154  1  0.0000   17.50650000    2.75655886    0.00000000
    155  2  0.0000   19.09800000    3.67541181    1.56400000
    156  2  0.0000   19.09800000    3.67541181   -1.56400000
    157  1  0.0000   19.09800000    5.51311772    0.00000000
    158  2  0.0000   20.68950000    6.43197067    1.56400000
    159  2  0.0000   20.68950000    6.43197067   -1.56400000
    160  1  0.0000   20.68950000    8.26967658    0.00000000
    161  2  0.0000   22.28100000    9.18852953    1.56400000
    162  2  0.0000   22.28100000    9.18852953   -1.56400000
    163  1  0.0000   22.28100000   11.02623544    0.00000000
    164  2  0.0000   23.87250000   11.94508839    1.56400000
    165  2  0.0000   23.87250000   11.94508839   -1.56400000
    166  1  0.0000   23.87250000   13.78279430    0.00000000
    167  2  0.0000   25.46400000   14.70164725    1.56400000
    168  2  0.0000   25.46400000   14.70164725   -1.56400000
    169  1  0.0000   25.46400000   16.53935316    0.00000000
    170  2  0.0000   27.05550000   17.45820611    1.56400000
    171  2  0.0000   27.05550000   17.45820611   -1.56400000
    172  1  0.0000   27.05550000   19.29591202    0.00000000
    173  2  0.0000   28.64700000   20.21476498    1.56400000
    174  2  0.0000   28.64700000   20.21476498   -1.56400000
    175  1  0.0000   28.64700000   22.05247088    0.00000000
    176  2  0.0000   30.23850000   22.97132384    1.56400000
    177  2  0.0000   30.23850000   22.97132384   -1.56400000
    178  1  0.0000   30.23850000   24.80902974    0.00000000
    179  2  0.0000    0.00000000   25.72788270    1.56400000
    180  2  0.0000    0.00000000   25.72788270   -1.56400000
    181  1  0.0000   19.09800000    0.00000000    0.00000000
    182  2  0.0000   20.68950000    0.91885295    1.56400000
    183  2  0.0000   20.68950000    0.91885295   -1.56400000
    184  1  0.0000   20.68950000    2.75655886    0.00000000
    185  2  0.0000   22.28100000    3.67541181    1.56400000
    186  2  0.0000   22.28100000    3.67541181   -1.56400000
    187  1  0.0000   22.28100000    5.51311772    0.00000000
    188  2  0.0000   23.87250000    6.43197067    1.56400000
    189  2  0.0000   23.87250000    6.43197067   -1.56400000
    190  1  0.0000   23.87250000    8.26967658    0.00000000
    191  2  0.0000   25.46400000    9.18852953    1.56400000
    192  2  0.0000   25.46400000    9.18852953   -1.56400000
    193  1  0.0000   25.46400000   11.02623544    0.00000000
    194  2  0.0000   27.05550000   11.94508839    1.56400000
    195  2  0.0000   27.05550000   11.94508839   -1.56400000
    196  1  0.0000   27.05550000   13.78279430    0.00000000
    197  2  0.0000   28.64700000   14.70164725    1.56400000
    198  2  0.0000   28.64700000   14.70164725   -1.56400000
    199  1  0.0000   28.64700000   16.53935316    0.00000000
    200  2  0.0000   30.23850000   17.45820611    1.56400000
    201  2  0.0000   30.23850000   17.45820611   -1.56400000
    202  1  0.0000   30.23850000   19.29591202    0.00000000
    203  2  0.0000    0.00000000   20.21476498    1.56400000
    204  2  0.0000    0.00000000   20.21476498   -1.56400000
    205  1  0.0000    0.00000000   22.05247088    0.00000000
    206  2  0.0000    1.59150000   22.97132384    1.56400000
    207  2  0.0000    1.59150000   22.97132384   -1.56400000
    208  1  0.0000    1.59150000   24.80902974    0.00000000
    209  2  0.0000    3.18300000   25.72788270    1.56400000
    210  2  0.0000    3.18300000   25.72788270   -1.56400000
    211  1  0.0000   22.28100000    0.00000000    0.00000000
    212  2  0.0000   23.87250000    0.91885295    1.56400000
    213  2  0.0000   23.87250000    0.91885295   -1.56400000
    214  1  0.0000   23.87250000    2.75655886    0.00000000
    215  2  0.0000   25.46400000    3.67541181    1.56400000
    216  2  0.0000   25.46400000    3.67541181   -1.56400000
    217  1  0.0000   25.46400000    5.51311772    0.00000000
    218  2  0.0000   27.05550000    6.43197067    1.56400000
    219  2  0.0000   27.05550000    6.43197067   -1.56400000
    220  1  0.0000   27.05550000    8.26967658    0.00000000
    221  2  0.0000   28.64700000    9.18852953    1.56400000
    222  2  0.0000   28.64700000    9.18852953   -1.56400000
    223  1  0.0000   28.64700000   11.02623544    0.00000000
    224  2  0.0000   30.23850000   11.94508839    1.56400000
    225  2  0.0000   30.23850000   11.94508839   -1.56400000
    226  1  0.0000   30.23850000   13.78279430    0.00000000
    227  2  0.0000    0.00000000   14.70164725    1.56400000
    228  2  0.0000    0.00000000   14.70164725   -1.56400000
    229  1  0.0000    0.00000000   16.53935316    0.00000000
    230  2  0.0000    1.59150000   17.45820611    1.56400000
    231  2  0.0000    1.59150000   17.45820611   -1.56400000
    232  1  0.0000    1.59150000   19.29591202    0.00000000
    233  2  0.0000    3.18300000   20.21476498    1.56400000
    234  2  0.0000    3.18300000   20.21476498   -1.56400000
    235  1  0.0000    3.18300000   22.05247088    0.00000000
    236  2  0.0000    4.77450000   22.97132384    1.56400000
    237  2  0.0000    4.77450000   22.97132384   -1.56400000
    238  1  0.0000    4.77450000   24.80902974    0.00000000
    239  2  0.0000    6.36600000   25.72788270    1.56400000
    240  2  0.0000    6.36600000   25.72788270   -1.56400000
    241  1  0.0000   25.46400000    0.00000000    0.00000000
    242  2  0.0000   27.05550000    0.91885295    1.56400000
    243  2  0.0000   27.05550000    0.91885295   -1.56400000
    244  1  0.0000   27.05550000    2.75655886    0.00000000
    245  2  0.0000   28.64700000    3.67541181    1.56400000
    246  2  0.0000   28.64700000    3.67541181   -1.56400000
    247  1  0.0000   28.64700000    5.51311772    0.00000000
    248  2  0.0000   30.23850000    6.43197067    1.56400000
    249  2  0.0000   30.23850000    6.43197067   -1.56400000
    250  1  0.0000   30.23850000    8.26967658    0.00000000
    251  2  0.0000    0.00000000    9.18852953    1.56400000
    252  2  0.0000    0.00000000    9.18852953   -1.56400000
    253  1  0.0000    0.00000000   11.02623544    0.00000000
    254  2  0.0000    1.59150000   11.94508839    1.56400000
    255  2  0.0000    1.59150000   11.94508839   -1.56400000
    256  1  0.0000    1.59150000   13.78279430    0.00000000
    257  2  0.0000    3.18300000   14.70164725    1.56400000
    258  2  0.0000    3.18300000   14.70164725   -1.56400000
    259  1  0.0000    3.18300000   16.53935316    0.00000000
    260  2  0.0000    4.77450000   17.45820611    1.56400000
    261  2  0.0000    4.77450000   17.45820611   -1.56400000
    262  1  0.0000    4.77450000   19.29591202    0.00000000
    263  2  0.0000    6.36600000   20.21476498    1.56400000
    264  2  0.0000    6.36600000   20.21476498   -1.56400000
    265  1  0.0000    6.36600000   22.05247088    0.00000000
    266  2  0.0000    7.95750000   22.97132384    1.56400000
    267  2  0.0000    7.95750000   22.97132384   -1.56400000
    268  1  0.0000    7.95750000   24.80902974    0.00000000
    269  2  0.0000    9.54900000   25.72788270    1.56400000
    270  2  0.0000    9.54900000   25.72788270   -1.56400000
    271  1  0.0000   28.64700000    0.00000000    0.00000000
    272  2  0.0000   30.23850000    0.91885295    1.56400000
    273  2  0.0000   30.23850000    0.91885295   -1.56400000
    274  1  0.0000   30.23850000    2.75655886    0.00000000
    275  2  0.0000    0.00000000    3.67541181    1.56400000
    276  2  0.0000    0.00000000    3.67541181   -1.56400000
    277  1  0.0000    0.00000000    5.51311772    0.00000000
    278  2  0.0000    1.59150000    6.43197067    1.56400000
    279  2  0.0000    1.59150000    6.43197067   -1.56400000
    280  1  0.0000    1.59150000    8.26967658    0.00000000
    281  2  0.0000    3.18300000    9.18852953    1.56400000
    282  2  0.0000    3.18300000    9.18852953   -1.56400000
    283  1  0.0000    3.18300000   11.02623544    0.00000000
    284  2  0.0000    4.77450000   11.94508839    1.56400000
    285  2  0.0000    4.77450000   11.94508839   -1.56400000
    286  1  0.0000    4.77450000   13.78279430    0.00000000
    287  2  0.0000    6.36600000   14.70164725    1.56400000
    288  2  0.0000    6.36600000   14.70164725   -1.56400000
    289  1  0.0000    6.36600000   16.53935316    0.00000000
    290  2  0.0000    7.95750000   17.45820611    1.56400000
    291  2  0.0000    7.95750000   17.45820611   -1.56400000
    292  1  0.0000    7.95750000   19.29591202    0.00000000
    293  2  0.0000    9.54900000   20.21476498    1.56400000
    294  2  0.0000    9.54900000   20.21476498   -1.56400000
    295  1  0.0000    9.54900000   22.05247088    0.00000000
    296  2  0.0000   11.14050000   22.97132384    1.56400000
    297  2  0.0000   11.14050000   22.97132384   -1.56400000
    298  1  0.0000   11.14050000   24.80902974    0.00000000
    299  2  0.0000   12.73200000   25.72788270    1.56400000
    300  2  0.0000   12.73200000   25.72788270   -1.56400000
