 vasp.6.2.0 18Jan21 (build Jul 31 2023 14:19:35) complex                        
  
 executed on             LinuxIFC date 2025.09.17  14:43:31
 running on    8 total cores
 distrk:  each k-point on    8 cores,    1 groups
 distr:  one band on NCORE=   4 cores,    2 groups


--------------------------------------------------------------------------------------------------------


 INCAR:
   SYSTEM = MoS2_SinglePoint_vdW_Coulomb
   PREC = Accurate
   ENCUT = 500
   GGA = PE
   ALGO = Normal
   NELM = 100
   NELMIN = 5
   EDIFF = 1E-6
   ISMEAR = 0
   SIGMA = 0.05
   IBRION = -1
   NSW = 0
   LREAL = .FALSE.
   LCHARG = .TRUE.
   LWAVE = .TRUE.
   NWRITE = 1
   NCORE = 4

 POTCAR:    PAW_PBE Mo_sv 02Feb2006               
 POTCAR:    PAW_PBE S 06Sep2000                   
 POTCAR:    PAW_PBE Mo_sv 02Feb2006               
  local pseudopotential read in
  partial core-charges read in
  partial kinetic energy density read in
  atomic valenz-charges read in
  non local Contribution for L=           0  read in
    real space projection operators read in
  non local Contribution for L=           0  read in
    real space projection operators read in
  non local Contribution for L=           1  read in
    real space projection operators read in
  non local Contribution for L=           1  read in
    real space projection operators read in
  non local Contribution for L=           2  read in
    real space projection operators read in
  non local Contribution for L=           2  read in
    real space projection operators read in
    PAW grid and wavefunctions read in
 
   number of l-projection  operators is LMAX  =           6
   number of lm-projection operators is LMMAX =          18
 
 POTCAR:    PAW_PBE S 06Sep2000                   
  local pseudopotential read in
  partial core-charges read in
  partial kinetic energy density read in
  atomic valenz-charges read in
  non local Contribution for L=           0  read in
    real space projection operators read in
  non local Contribution for L=           0  read in
    real space projection operators read in
  non local Contribution for L=           1  read in
    real space projection operators read in
  non local Contribution for L=           1  read in
    real space projection operators read in
    PAW grid and wavefunctions read in
 
   number of l-projection  operators is LMAX  =           4
   number of lm-projection operators is LMMAX =           8
 
  PAW_PBE Mo_sv 02Feb2006               :
 energy of atom  1       EATOM=-1862.2866
 kinetic energy error for atom=    0.0074 (will be added to EATOM!!)
  PAW_PBE S 06Sep2000                   :
 energy of atom  2       EATOM= -276.8230
 kinetic energy error for atom=    0.0020 (will be added to EATOM!!)
 
 
 POSCAR: Mo S
  positions in direct lattice
  No initial velocities read in
 exchange correlation table for  LEXCH =        8
   RHO(1)=    0.500       N(1)  =     2000
   RHO(2)=  100.500       N(2)  =     4000

 VTST: version 4.0, (05/15/20)

 CHAIN: initializing optimizer
 
 OPT: Using VASP Dynamics algorithm
 CHAIN: Read ICHAIN            0
 
 POSCAR: Mo S
  positions in direct lattice
  No initial velocities read in
 


--------------------------------------------------------------------------------------------------------


 ion  position               nearest neighbor table
   1  0.667  0.333  0.250-   4 2.39   6 2.42   6 2.42   6 2.42   4 2.42   4 2.92
   2  0.333  0.667  0.750-   3 2.42   5 2.42   3 2.42   5 2.42   3 2.42   5 2.42
   3  0.667  0.333  0.633-   2 2.42   2 2.42   2 2.42
   4  0.821  0.917  0.380-   1 2.39   1 2.42   1 2.92
   5  0.667  0.333  0.867-   2 2.42   2 2.42   2 2.42
   6  0.333  0.667  0.133-   1 2.42   1 2.42   1 2.42
 
  LATTYP: Found a hexagonal cell.
 ALAT       =     3.1922378540
 C/A-ratio  =     4.1908825730
  
  Lattice vectors:
  
 A1 = (   1.5961189270,  -2.7645590765,   0.0000000000)
 A2 = (   1.5961189270,   2.7645590765,   0.0000000000)
 A3 = (   0.0000000000,   0.0000000000,  13.3782939911)


Analysis of symmetry for initial positions (statically):
=====================================================================
 Subroutine PRICEL returns:
 Original cell was already a primitive cell.
 

 Routine SETGRP: Setting up the symmetry group for a 
 hexagonal supercell.


 Subroutine GETGRP returns: Found  1 space group operations
 (whereof  1 operations were pure point group operations)
 out of a pool of 24 trial point group operations.


The static configuration has the point symmetry C_1 .


Analysis of symmetry for dynamics (positions and initial velocities):
=====================================================================
 Subroutine PRICEL returns:
 Original cell was already a primitive cell.
 

 Routine SETGRP: Setting up the symmetry group for a 
 hexagonal supercell.


 Subroutine GETGRP returns: Found  1 space group operations
 (whereof  1 operations were pure point group operations)
 out of a pool of 24 trial point group operations.


The dynamic configuration has the point symmetry C_1 .


 Subroutine INISYM returns: Found  1 space group operations
 (whereof  1 operations are pure point group operations),
 and found     1 'primitive' translations


----------------------------------------------------------------------------------------

                                     Primitive cell                                     

  volume of cell :     118.0652

  direct lattice vectors                    reciprocal lattice vectors
     1.596118927 -2.764559076  0.000000000     0.313259865 -0.180860668  0.000000000
     1.596118927  2.764559076  0.000000000     0.313259865  0.180860668  0.000000000
     0.000000000  0.000000000 13.378293991     0.000000000  0.000000000  0.074747946

  length of vectors
     3.192237854  3.192237854 13.378293991     0.361721335  0.361721335  0.074747946

  position of ions in fractional coordinates (direct lattice)
     0.666666667  0.333333333  0.250000000
     0.333333333  0.666666667  0.750000000
     0.666666667  0.333333333  0.633082000
     0.821337370  0.917302516  0.380432859
     0.666666667  0.333333333  0.866918000
     0.333333333  0.666666667  0.133082000

  ion indices of the primitive-cell ions
   primitive index   ion index
                 1           1
                 2           2
                 3           3
                 4           4
                 5           5
                 6           6

----------------------------------------------------------------------------------------

 
 
 KPOINTS: K-Spacing Value to Generate K-Mesh: 0.15

Automatic generation of k-mesh.
 Grid dimensions read from file:
 generate k-points for:    2    2    1

 Generating k-lattice:

  Cartesian coordinates                     Fractional coordinates (reciprocal lattice)
     0.156629933 -0.090430334  0.000000000     0.500000000  0.000000000  0.000000000
     0.156629933  0.090430334  0.000000000     0.000000000  0.500000000  0.000000000
     0.000000000  0.000000000  0.074747946     0.000000000  0.000000000  1.000000000

  Length of vectors
     0.180860668  0.180860668  0.074747946

  Shift w.r.t. Gamma in fractional coordinates (k-lattice)
     0.500000000  0.500000000  0.000000000

 
 Subroutine IBZKPT returns following result:
 ===========================================
 
 Found      6 irreducible k-points:
 
 Following reciprocal coordinates:
            Coordinates               Weight
  0.250000  0.250000  0.000000      2.000000
 -0.250000  0.500000  0.000000      2.000000
  0.500000  0.250000  0.000000      2.000000
 -0.250000  0.250000  0.000000      2.000000
 -0.250000  0.000000  0.000000      2.000000
  0.000000 -0.250000  0.000000      2.000000
 
 Following cartesian coordinates:
            Coordinates               Weight
  0.156630  0.000000  0.000000      2.000000
  0.078315  0.135646  0.000000      2.000000
  0.234945 -0.045215  0.000000      2.000000
  0.000000  0.090430  0.000000      2.000000
 -0.078315  0.045215  0.000000      2.000000
 -0.078315 -0.045215  0.000000      2.000000
 


--------------------------------------------------------------------------------------------------------




 Dimension of arrays:
   k-points           NKPTS =      6   k-points in BZ     NKDIM =      6   number of bands    NBANDS=     32
   number of dos      NEDOS =    301   number of ions     NIONS =      6
   non local maximal  LDIM  =      6   non local SUM 2l+1 LMDIM =     18
   total plane-waves  NPLWV =  56448
   max r-space proj   IRMAX =      1   max aug-charges    IRDMAX=  21106
   dimension x,y,z NGX =    24 NGY =   24 NGZ =   98
   dimension x,y,z NGXF=    48 NGYF=   48 NGZF=  196
   support grid    NGXF=    48 NGYF=   48 NGZF=  196
   ions per type =               2   4
   NGX,Y,Z   is equivalent  to a cutoff of  12.50, 12.50, 12.18 a.u.
   NGXF,Y,Z  is equivalent  to a cutoff of  25.00, 25.00, 24.36 a.u.

 SYSTEM =  MoS2_SinglePoint_vdW_Coulomb           
 POSCAR =  Mo S                                    

 Startparameter for this run:
   NWRITE =      1    write-flag & timer
   PREC   = accura    normal or accurate (medium, high low for compatibility)
   ISTART =      0    job   : 0-new  1-cont  2-samecut
   ICHARG =      2    charge: 1-file 2-atom 10-const
   ISPIN  =      1    spin polarized calculation?
   LNONCOLLINEAR =      F non collinear calculations
   LSORBIT =      F    spin-orbit coupling
   INIWAV =      1    electr: 0-lowe 1-rand  2-diag
   LASPH  =      F    aspherical Exc in radial PAW
   METAGGA=      F    non-selfconsistent MetaGGA calc.

 Electronic Relaxation 1
   ENCUT  =  500.0 eV  36.75 Ry    6.06 a.u.   5.82  5.82 24.39*2*pi/ulx,y,z
   ENINI  =  500.0     initial cutoff
   ENAUG  =  446.0 eV  augmentation charge cutoff
   NELM   =    100;   NELMIN=  5; NELMDL= -5     # of ELM steps 
   EDIFF  = 0.1E-05   stopping-criterion for ELM
   LREAL  =      F    real-space projection
   NLSPLINE    = F    spline interpolate recip. space projectors
   LCOMPAT=      F    compatible to vasp.4.4
   GGA_COMPAT  = T    GGA compatible to vasp.4.4-vasp.4.6
   LMAXPAW     = -100 max onsite density
   LMAXMIX     =    2 max onsite mixed and CHGCAR
   VOSKOWN=      0    Vosko Wilk Nusair interpolation
   ROPT   =    0.00000   0.00000
 Ionic relaxation
   EDIFFG = 0.1E-04   stopping-criterion for IOM
   NSW    =      0    number of steps for IOM
   NBLOCK =      1;   KBLOCK =      1    inner block; outer block 
   IBRION =     -1    ionic relax: 0-MD 1-quasi-New 2-CG
   NFREE  =      0    steps in history (QN), initial steepest desc. (CG)
   ISIF   =      2    stress and relaxation
   IWAVPR =     10    prediction:  0-non 1-charg 2-wave 3-comb
   ISYM   =      2    0-nonsym 1-usesym 2-fastsym
   LCORR  =      T    Harris-Foulkes like correction to forces

   POTIM  = 0.5000    time-step for ionic-motion
   TEIN   =    0.0    initial temperature
   TEBEG  =    0.0;   TEEND  =   0.0 temperature during run
   SMASS  =  -3.00    Nose mass-parameter (am)
   estimated Nose-frequenzy (Omega)   =  0.10E-29 period in steps = 0.13E+47 mass=  -0.233E-27a.u.
   SCALEE = 1.0000    scale energy and forces
   NPACO  =    256;   APACO  = 16.0  distance and # of slots for P.C.
   PSTRESS=    0.0 pullay stress

  Mass of Ions in am
   POMASS =  95.94 32.07
  Ionic Valenz
   ZVAL   =  14.00  6.00
  Atomic Wigner-Seitz radii
   RWIGS  =  -1.00 -1.00
  virtual crystal weights 
   VCA    =   1.00  1.00
   NELECT =      52.0000    total number of electrons
   NUPDOWN=      -1.0000    fix difference up-down

 DOS related values:
   EMIN   =  10.00;   EMAX   =-10.00  energy-range for DOS
   EFERMI =   0.00
   ISMEAR =     0;   SIGMA  =   0.05  broadening in eV -4-tet -1-fermi 0-gaus

 Electronic relaxation 2 (details)
   IALGO  =     38    algorithm
   LDIAG  =      T    sub-space diagonalisation (order eigenvalues)
   LSUBROT=      F    optimize rotation matrix (better conditioning)
   TURBO    =      0    0=normal 1=particle mesh
   IRESTART =      0    0=no restart 2=restart with 2 vectors
   NREBOOT  =      0    no. of reboots
   NMIN     =      0    reboot dimension
   EREF     =   0.00    reference energy to select bands
   IMIX   =      4    mixing-type and parameters
     AMIX     =   0.40;   BMIX     =  1.00
     AMIX_MAG =   1.60;   BMIX_MAG =  1.00
     AMIN     =   0.10
     WC   =   100.;   INIMIX=   1;  MIXPRE=   1;  MAXMIX= -45

 Intra band minimization:
   WEIMIN = 0.0000     energy-eigenvalue tresh-hold
   EBREAK =  0.78E-08  absolut break condition
   DEPER  =   0.30     relativ break condition  

   TIME   =   0.40     timestep for ELM

  volume/ion in A,a.u.               =      19.68       132.79
  Fermi-wavevector in a.u.,A,eV,Ry     =   1.245571  2.353789 21.108736  1.551448
  Thomas-Fermi vector in A             =   2.379788
 
 Write flags
   LWAVE        =      T    write WAVECAR
   LDOWNSAMPLE  =      F    k-point downsampling of WAVECAR
   LCHARG       =      T    write CHGCAR
   LVTOT        =      F    write LOCPOT, total local potential
   LVHAR        =      F    write LOCPOT, Hartree potential only
   LELF         =      F    write electronic localiz. function (ELF)
   LORBIT       =      0    0 simple, 1 ext, 2 COOP (PROOUT), +10 PAW based schemes


 Dipole corrections
   LMONO  =      F    monopole corrections only (constant potential shift)
   LDIPOL =      F    correct potential (dipole corrections)
   IDIPOL =      0    1-x, 2-y, 3-z, 4-all directions 
   EPSILON=  1.0000000 bulk dielectric constant

 Exchange correlation treatment:
   GGA     =    PE    GGA type
   LEXCH   =     8    internal setting for exchange type
   VOSKOWN=      0    Vosko Wilk Nusair interpolation
   LHFCALC =     F    Hartree Fock is set to
   LHFONE  =     F    Hartree Fock one center treatment
   AEXX    =    0.0000 exact exchange contribution

 Linear response parameters
   LEPSILON=     F    determine dielectric tensor
   LRPA    =     F    only Hartree local field effects (RPA)
   LNABLA  =     F    use nabla operator in PAW spheres
   LVEL    =     F    velocity operator in full k-point grid
   LINTERFAST=   F  fast interpolation
   KINTER  =     0    interpolate to denser k-point grid
   CSHIFT  =0.1000    complex shift for real part using Kramers Kronig
   OMEGAMAX=  -1.0    maximum frequency
   DEG_THRESHOLD= 0.2000000E-02 threshold for treating states as degnerate
   RTIME   =   -0.100 relaxation time in fs
  (WPLASMAI=    0.000 imaginary part of plasma frequency in eV, 0.658/RTIME)
   DFIELD  = 0.0000000 0.0000000 0.0000000 field for delta impulse in time
 
 Orbital magnetization related:
   ORBITALMAG=     F  switch on orbital magnetization
   LCHIMAG   =     F  perturbation theory with respect to B field
   DQ        =  0.001000  dq finite difference perturbation B field
   LLRAUG    =     F  two centre corrections for induced B field



--------------------------------------------------------------------------------------------------------


 Static calculation
 charge density and potential will be updated during run
 non-spin polarized calculation
 Variant of blocked Davidson
 Davidson routine will perform the subspace rotation
 perform sub-space diagonalisation
    after iterative eigenvector-optimisation
 modified Broyden-mixing scheme, WC =      100.0
 initial mixing is a Kerker type mixing with AMIX =  0.4000 and BMIX =      1.0000
 Hartree-type preconditioning will be used
 using additional bands            6
 reciprocal scheme for non local part
 use partial core corrections
 calculate Harris-corrections to forces 
   (improved forces if not selfconsistent)
 use gradient corrections 
 use of overlap-Matrix (Vanderbilt PP)
 Gauss-broadening in eV      SIGMA  =   0.05


--------------------------------------------------------------------------------------------------------


  energy-cutoff  :      500.00
  volume of cell :      118.07
      direct lattice vectors                 reciprocal lattice vectors
     1.596118927 -2.764559076  0.000000000     0.313259865 -0.180860668  0.000000000
     1.596118927  2.764559076  0.000000000     0.313259865  0.180860668  0.000000000
     0.000000000  0.000000000 13.378293991     0.000000000  0.000000000  0.074747946

  length of vectors
     3.192237854  3.192237854 13.378293991     0.361721335  0.361721335  0.074747946


 
 k-points in units of 2pi/SCALE and weight: K-Spacing Value to Generate K-Mesh: 0.15
   0.15662993  0.00000000  0.00000000       0.167
   0.07831497  0.13564550  0.00000000       0.167
   0.23494490 -0.04521517  0.00000000       0.167
   0.00000000  0.09043033  0.00000000       0.167
  -0.07831497  0.04521517  0.00000000       0.167
  -0.07831497 -0.04521517  0.00000000       0.167
 
 k-points in reciprocal lattice and weights: K-Spacing Value to Generate K-Mesh: 0.15
   0.25000000  0.25000000  0.00000000       0.167
  -0.25000000  0.50000000  0.00000000       0.167
   0.50000000  0.25000000  0.00000000       0.167
  -0.25000000  0.25000000  0.00000000       0.167
  -0.25000000  0.00000000  0.00000000       0.167
   0.00000000 -0.25000000  0.00000000       0.167
 
 position of ions in fractional coordinates (direct lattice) 
   0.66666667  0.33333333  0.25000000
   0.33333333  0.66666667  0.75000000
   0.66666667  0.33333333  0.63308200
   0.82133737  0.91730252  0.38043286
   0.66666667  0.33333333  0.86691800
   0.33333333  0.66666667  0.13308200
 
 position of ions in cartesian coordinates  (Angst):
   1.59611893 -0.92151969  3.34457350
   1.59611893  0.92151969 10.03372049
   1.59611893 -0.92151969  8.46955712
   2.77507603  0.26530132  5.08954264
   1.59611893 -0.92151969 11.59788387
   1.59611893  0.92151969  1.78041012
 


--------------------------------------------------------------------------------------------------------


 k-point   1 :   0.2500 0.2500 0.0000  plane waves:    3020
 k-point   2 :  -0.2500 0.5000 0.0000  plane waves:    3020
 k-point   3 :   0.5000 0.2500 0.0000  plane waves:    3020
 k-point   4 :  -0.2500 0.2500 0.0000  plane waves:    2992
 k-point   5 :  -0.2500 0.0000 0.0000  plane waves:    2992
 k-point   6 :   0.0000-0.2500 0.0000  plane waves:    2992

 maximum and minimum number of plane-waves per node :       767      745

 maximum number of plane-waves:      3020
 maximum index in each direction: 
   IXMAX=    6   IYMAX=    6   IZMAX=   24
   IXMIN=   -6   IYMIN=   -6   IZMIN=  -24


 parallel 3D FFT for wavefunctions:
    minimum data exchange during FFTs selected (reduces bandwidth)
 parallel 3D FFT for charge:
    minimum data exchange during FFTs selected (reduces bandwidth)


 total amount of memory used by VASP MPI-rank0    38677. kBytes
=======================================================================

   base      :      30000. kBytes
   nonl-proj :       1371. kBytes
   fftplans  :       2330. kBytes
   grid      :       3750. kBytes
   one-center:         31. kBytes
   wavefun   :       1195. kBytes
 
     INWAV:  cpu time    0.0000: real time    0.0001
 Broyden mixing: mesh for mixing (old mesh)
   NGX = 11   NGY = 11   NGZ = 49
  (NGX  = 48   NGY  = 48   NGZ  =196)
  gives a total of   5929 points

 initial charge density was supplied:
 charge density of overlapping atoms calculated
 number of electron      52.0000000 magnetization 
 keeping initial charge density in first step


--------------------------------------------------------------------------------------------------------


 Maximum index for augmentation-charges         2591 (set IRDMAX)


--------------------------------------------------------------------------------------------------------


 First call to EWALD:  gamma=   0.361
 Maximum number of real-space cells 4x 4x 1
 Maximum number of reciprocal cells 2x 2x 7

    FEWALD:  cpu time    0.0019: real time    0.0019


--------------------------------------- Iteration      1(   1)  ---------------------------------------


    POTLOK:  cpu time    0.0566: real time    0.0578
    SETDIJ:  cpu time    0.0056: real time    0.0055
     EDDAV:  cpu time    0.3927: real time    0.3930
       DOS:  cpu time    0.0010: real time    0.0010
    --------------------------------------------
      LOOP:  cpu time    0.4559: real time    0.4574

 eigenvalue-minimisations  :   432
 total energy-change (2. order) : 0.4215714E+03  (-0.2921215E+04)
 number of electron      52.0000000 magnetization 
 augmentation part       52.0000000 magnetization 

 Free energy of the ion-electron system (eV)
  ---------------------------------------------------
  alpha Z        PSCENC =       160.27286088
  Ewald energy   TEWEN  =     -2912.06566374
  -Hartree energ DENC   =     -1836.47668837
  -exchange      EXHF   =         0.00000000
  -V(xc)+E(xc)   XCENC  =       182.37095625
  PAW double counting   =      3865.57804258    -3815.84821480
  entropy T*S    EENTRO =        -0.00708012
  eigenvalues    EBANDS =       -54.09548862
  atomic energy  EATOM  =      4831.84262874
  Solvation  Ediel_sol  =         0.00000000
  ---------------------------------------------------
  free energy    TOTEN  =       421.57135279 eV

  energy without entropy =      421.57843291  energy(sigma->0) =      421.57489285


--------------------------------------------------------------------------------------------------------




--------------------------------------- Iteration      1(   2)  ---------------------------------------


     EDDAV:  cpu time    0.4094: real time    0.4120
       DOS:  cpu time    0.0006: real time    0.0006
    --------------------------------------------
      LOOP:  cpu time    0.4100: real time    0.4126

 eigenvalue-minimisations  :   464
 total energy-change (2. order) :-0.4443791E+03  (-0.4339811E+03)
 number of electron      52.0000000 magnetization 
 augmentation part       52.0000000 magnetization 

 Free energy of the ion-electron system (eV)
  ---------------------------------------------------
  alpha Z        PSCENC =       160.27286088
  Ewald energy   TEWEN  =     -2912.06566374
  -Hartree energ DENC   =     -1836.47668837
  -exchange      EXHF   =         0.00000000
  -V(xc)+E(xc)   XCENC  =       182.37095625
  PAW double counting   =      3865.57804258    -3815.84821480
  entropy T*S    EENTRO =        -0.00004381
  eigenvalues    EBANDS =      -498.48160570
  atomic energy  EATOM  =      4831.84262874
  Solvation  Ediel_sol  =         0.00000000
  ---------------------------------------------------
  free energy    TOTEN  =       -22.80772798 eV

  energy without entropy =      -22.80768417  energy(sigma->0) =      -22.80770608


--------------------------------------------------------------------------------------------------------




--------------------------------------- Iteration      1(   3)  ---------------------------------------


     EDDAV:  cpu time    0.4324: real time    0.4365
       DOS:  cpu time    0.0003: real time    0.0003
    --------------------------------------------
      LOOP:  cpu time    0.4326: real time    0.4368

 eigenvalue-minimisations  :   488
 total energy-change (2. order) :-0.2246331E+02  (-0.2219069E+02)
 number of electron      52.0000000 magnetization 
 augmentation part       52.0000000 magnetization 

 Free energy of the ion-electron system (eV)
  ---------------------------------------------------
  alpha Z        PSCENC =       160.27286088
  Ewald energy   TEWEN  =     -2912.06566374
  -Hartree energ DENC   =     -1836.47668837
  -exchange      EXHF   =         0.00000000
  -V(xc)+E(xc)   XCENC  =       182.37095625
  PAW double counting   =      3865.57804258    -3815.84821480
  entropy T*S    EENTRO =        -0.00000000
  eigenvalues    EBANDS =      -520.94495493
  atomic energy  EATOM  =      4831.84262874
  Solvation  Ediel_sol  =         0.00000000
  ---------------------------------------------------
  free energy    TOTEN  =       -45.27103340 eV

  energy without entropy =      -45.27103340  energy(sigma->0) =      -45.27103340


--------------------------------------------------------------------------------------------------------




--------------------------------------- Iteration      1(   4)  ---------------------------------------


     EDDAV:  cpu time    0.4106: real time    0.4137
       DOS:  cpu time    0.0003: real time    0.0003
    --------------------------------------------
      LOOP:  cpu time    0.4109: real time    0.4140

 eigenvalue-minimisations  :   464
 total energy-change (2. order) :-0.5340052E+00  (-0.5320324E+00)
 number of electron      52.0000000 magnetization 
 augmentation part       52.0000000 magnetization 

 Free energy of the ion-electron system (eV)
  ---------------------------------------------------
  alpha Z        PSCENC =       160.27286088
  Ewald energy   TEWEN  =     -2912.06566374
  -Hartree energ DENC   =     -1836.47668837
  -exchange      EXHF   =         0.00000000
  -V(xc)+E(xc)   XCENC  =       182.37095625
  PAW double counting   =      3865.57804258    -3815.84821480
  entropy T*S    EENTRO =        -0.00000000
  eigenvalues    EBANDS =      -521.47896009
  atomic energy  EATOM  =      4831.84262874
  Solvation  Ediel_sol  =         0.00000000
  ---------------------------------------------------
  free energy    TOTEN  =       -45.80503856 eV

  energy without entropy =      -45.80503856  energy(sigma->0) =      -45.80503856


--------------------------------------------------------------------------------------------------------




--------------------------------------- Iteration      1(   5)  ---------------------------------------


     EDDAV:  cpu time    0.4386: real time    0.4421
       DOS:  cpu time    0.0002: real time    0.0002
    CHARGE:  cpu time    0.0380: real time    0.0380
    MIXING:  cpu time    0.0014: real time    0.0014
    --------------------------------------------
      LOOP:  cpu time    0.4783: real time    0.4818

 eigenvalue-minimisations  :   504
 total energy-change (2. order) :-0.1523133E-01  (-0.1522444E-01)
 number of electron      51.9999992 magnetization 
 augmentation part        0.6906248 magnetization 

 Broyden mixing:
  rms(total) = 0.31383E+01    rms(broyden)= 0.31383E+01
  rms(prec ) = 0.32499E+01
  weight for this iteration     100.00

 Free energy of the ion-electron system (eV)
  ---------------------------------------------------
  alpha Z        PSCENC =       160.27286088
  Ewald energy   TEWEN  =     -2912.06566374
  -Hartree energ DENC   =     -1836.47668837
  -exchange      EXHF   =         0.00000000
  -V(xc)+E(xc)   XCENC  =       182.37095625
  PAW double counting   =      3865.57804258    -3815.84821480
  entropy T*S    EENTRO =        -0.00000000
  eigenvalues    EBANDS =      -521.49419141
  atomic energy  EATOM  =      4831.84262874
  Solvation  Ediel_sol  =         0.00000000
  ---------------------------------------------------
  free energy    TOTEN  =       -45.82026988 eV

  energy without entropy =      -45.82026988  energy(sigma->0) =      -45.82026988


--------------------------------------------------------------------------------------------------------




--------------------------------------- Iteration      1(   6)  ---------------------------------------


    POTLOK:  cpu time    0.0557: real time    0.0599
    SETDIJ:  cpu time    0.0053: real time    0.0053
     EDDAV:  cpu time    0.3618: real time    0.3620
       DOS:  cpu time    0.0003: real time    0.0003
    CHARGE:  cpu time    0.0357: real time    0.0357
    MIXING:  cpu time    0.0015: real time    0.0015
    --------------------------------------------
      LOOP:  cpu time    0.4603: real time    0.4647

 eigenvalue-minimisations  :   392
 total energy-change (2. order) : 0.1749914E+01  (-0.2458094E+01)
 number of electron      51.9999990 magnetization 
 augmentation part        2.0879299 magnetization 

 Broyden mixing:
  rms(total) = 0.13575E+01    rms(broyden)= 0.13575E+01
  rms(prec ) = 0.15427E+01
  weight for this iteration     100.00

 eigenvalues of (default mixing * dielectric matrix)
  average eigenvalue GAMMA=   1.0492
  1.0492

 Free energy of the ion-electron system (eV)
  ---------------------------------------------------
  alpha Z        PSCENC =       160.27286088
  Ewald energy   TEWEN  =     -2912.06566374
  -Hartree energ DENC   =     -1774.76631988
  -exchange      EXHF   =         0.00000000
  -V(xc)+E(xc)   XCENC  =       180.70281955
  PAW double counting   =      4509.09493926    -4466.25407073
  entropy T*S    EENTRO =        -0.00000000
  eigenvalues    EBANDS =      -572.89754965
  atomic energy  EATOM  =      4831.84262874
  Solvation  Ediel_sol  =         0.00000000
  ---------------------------------------------------
  free energy    TOTEN  =       -44.07035558 eV

  energy without entropy =      -44.07035558  energy(sigma->0) =      -44.07035558


--------------------------------------------------------------------------------------------------------




--------------------------------------- Iteration      1(   7)  ---------------------------------------


    POTLOK:  cpu time    0.0553: real time    0.0592
    SETDIJ:  cpu time    0.0053: real time    0.0053
     EDDAV:  cpu time    0.3741: real time    0.3744
       DOS:  cpu time    0.0005: real time    0.0005
    CHARGE:  cpu time    0.0375: real time    0.0375
    MIXING:  cpu time    0.0014: real time    0.0014
    --------------------------------------------
      LOOP:  cpu time    0.4742: real time    0.4785

 eigenvalue-minimisations  :   408
 total energy-change (2. order) : 0.5206080E+00  (-0.1602918E+01)
 number of electron      51.9999992 magnetization 
 augmentation part        1.1821526 magnetization 

 Broyden mixing:
  rms(total) = 0.86187E+00    rms(broyden)= 0.86186E+00
  rms(prec ) = 0.10188E+01
  weight for this iteration     100.00

 eigenvalues of (default mixing * dielectric matrix)
  average eigenvalue GAMMA=   1.1098
  1.6534  0.5663

 Free energy of the ion-electron system (eV)
  ---------------------------------------------------
  alpha Z        PSCENC =       160.27286088
  Ewald energy   TEWEN  =     -2912.06566374
  -Hartree energ DENC   =     -1820.54188690
  -exchange      EXHF   =         0.00000000
  -V(xc)+E(xc)   XCENC  =       181.45704244
  PAW double counting   =      5043.74556053    -4998.76401590
  entropy T*S    EENTRO =        -0.00000000
  eigenvalues    EBANDS =      -529.49627365
  atomic energy  EATOM  =      4831.84262874
  Solvation  Ediel_sol  =         0.00000000
  ---------------------------------------------------
  free energy    TOTEN  =       -43.54974761 eV

  energy without entropy =      -43.54974760  energy(sigma->0) =      -43.54974760


--------------------------------------------------------------------------------------------------------




--------------------------------------- Iteration      1(   8)  ---------------------------------------


    POTLOK:  cpu time    0.0552: real time    0.0586
    SETDIJ:  cpu time    0.0054: real time    0.0054
     EDDAV:  cpu time    0.3984: real time    0.3985
       DOS:  cpu time    0.0004: real time    0.0004
    CHARGE:  cpu time    0.0364: real time    0.0364
    MIXING:  cpu time    0.0014: real time    0.0014
    --------------------------------------------
      LOOP:  cpu time    0.4972: real time    0.5007

 eigenvalue-minimisations  :   448
 total energy-change (2. order) : 0.7622266E+00  (-0.3526386E+00)
 number of electron      51.9999991 magnetization 
 augmentation part        1.5207663 magnetization 

 Broyden mixing:
  rms(total) = 0.38368E+00    rms(broyden)= 0.38368E+00
  rms(prec ) = 0.40315E+00
  weight for this iteration     100.00

 eigenvalues of (default mixing * dielectric matrix)
  average eigenvalue GAMMA=   1.1295
  2.1343  0.7566  0.4977

 Free energy of the ion-electron system (eV)
  ---------------------------------------------------
  alpha Z        PSCENC =       160.27286088
  Ewald energy   TEWEN  =     -2912.06566374
  -Hartree energ DENC   =     -1800.53218930
  -exchange      EXHF   =         0.00000000
  -V(xc)+E(xc)   XCENC  =       181.01499825
  PAW double counting   =      5457.60711467    -5414.87847121
  entropy T*S    EENTRO =        -0.00000000
  eigenvalues    EBANDS =      -546.04879925
  atomic energy  EATOM  =      4831.84262874
  Solvation  Ediel_sol  =         0.00000000
  ---------------------------------------------------
  free energy    TOTEN  =       -42.78752096 eV

  energy without entropy =      -42.78752096  energy(sigma->0) =      -42.78752096


--------------------------------------------------------------------------------------------------------




--------------------------------------- Iteration      1(   9)  ---------------------------------------


    POTLOK:  cpu time    0.0551: real time    0.0591
    SETDIJ:  cpu time    0.0054: real time    0.0054
     EDDAV:  cpu time    0.3891: real time    0.3892
       DOS:  cpu time    0.0004: real time    0.0004
    CHARGE:  cpu time    0.0369: real time    0.0369
    MIXING:  cpu time    0.0015: real time    0.0015
    --------------------------------------------
      LOOP:  cpu time    0.4885: real time    0.4925

 eigenvalue-minimisations  :   424
 total energy-change (2. order) : 0.2091013E-01  (-0.4259994E-01)
 number of electron      51.9999991 magnetization 
 augmentation part        1.6014146 magnetization 

 Broyden mixing:
  rms(total) = 0.12222E+00    rms(broyden)= 0.12222E+00
  rms(prec ) = 0.13491E+00
  weight for this iteration     100.00

 eigenvalues of (default mixing * dielectric matrix)
  average eigenvalue GAMMA=   1.1031
  2.3213  1.0223  0.5343  0.5343

 Free energy of the ion-electron system (eV)
  ---------------------------------------------------
  alpha Z        PSCENC =       160.27286088
  Ewald energy   TEWEN  =     -2912.06566374
  -Hartree energ DENC   =     -1797.87740158
  -exchange      EXHF   =         0.00000000
  -V(xc)+E(xc)   XCENC  =       180.94053150
  PAW double counting   =      5687.99046046    -5645.90743259
  entropy T*S    EENTRO =        -0.00000002
  eigenvalues    EBANDS =      -547.96259448
  atomic energy  EATOM  =      4831.84262874
  Solvation  Ediel_sol  =         0.00000000
  ---------------------------------------------------
  free energy    TOTEN  =       -42.76661084 eV

  energy without entropy =      -42.76661082  energy(sigma->0) =      -42.76661083


--------------------------------------------------------------------------------------------------------




--------------------------------------- Iteration      1(  10)  ---------------------------------------


    POTLOK:  cpu time    0.0563: real time    0.0587
    SETDIJ:  cpu time    0.0054: real time    0.0054
     EDDAV:  cpu time    0.4361: real time    0.4362
       DOS:  cpu time    0.0004: real time    0.0004
    CHARGE:  cpu time    0.0364: real time    0.0364
    MIXING:  cpu time    0.0015: real time    0.0015
    --------------------------------------------
      LOOP:  cpu time    0.5362: real time    0.5386

 eigenvalue-minimisations  :   504
 total energy-change (2. order) : 0.5682407E-02  (-0.3192843E-02)
 number of electron      51.9999991 magnetization 
 augmentation part        1.5824393 magnetization 

 Broyden mixing:
  rms(total) = 0.59356E-01    rms(broyden)= 0.59356E-01
  rms(prec ) = 0.66340E-01
  weight for this iteration     100.00

 eigenvalues of (default mixing * dielectric matrix)
  average eigenvalue GAMMA=   1.1152
  2.2447  1.3162  0.8610  0.6044  0.5500

 Free energy of the ion-electron system (eV)
  ---------------------------------------------------
  alpha Z        PSCENC =       160.27286088
  Ewald energy   TEWEN  =     -2912.06566374
  -Hartree energ DENC   =     -1799.55647407
  -exchange      EXHF   =         0.00000000
  -V(xc)+E(xc)   XCENC  =       180.98880729
  PAW double counting   =      5755.99900702    -5713.92968130
  entropy T*S    EENTRO =        -0.00000002
  eigenvalues    EBANDS =      -546.31241322
  atomic energy  EATOM  =      4831.84262874
  Solvation  Ediel_sol  =         0.00000000
  ---------------------------------------------------
  free energy    TOTEN  =       -42.76092843 eV

  energy without entropy =      -42.76092841  energy(sigma->0) =      -42.76092842


--------------------------------------------------------------------------------------------------------




--------------------------------------- Iteration      1(  11)  ---------------------------------------


    POTLOK:  cpu time    0.0551: real time    0.0585
    SETDIJ:  cpu time    0.0054: real time    0.0054
     EDDAV:  cpu time    0.3949: real time    0.3949
       DOS:  cpu time    0.0005: real time    0.0005
    CHARGE:  cpu time    0.0365: real time    0.0365
    MIXING:  cpu time    0.0015: real time    0.0015
    --------------------------------------------
      LOOP:  cpu time    0.4939: real time    0.4974

 eigenvalue-minimisations  :   440
 total energy-change (2. order) : 0.1623348E-02  (-0.1157697E-02)
 number of electron      51.9999991 magnetization 
 augmentation part        1.5568139 magnetization 

 Broyden mixing:
  rms(total) = 0.23487E-01    rms(broyden)= 0.23487E-01
  rms(prec ) = 0.24684E-01
  weight for this iteration     100.00

 eigenvalues of (default mixing * dielectric matrix)
  average eigenvalue GAMMA=   1.2483
  2.5034  2.0589  1.0912  0.6845  0.5476  0.6041

 Free energy of the ion-electron system (eV)
  ---------------------------------------------------
  alpha Z        PSCENC =       160.27286088
  Ewald energy   TEWEN  =     -2912.06566374
  -Hartree energ DENC   =     -1800.92625215
  -exchange      EXHF   =         0.00000000
  -V(xc)+E(xc)   XCENC  =       181.03275983
  PAW double counting   =      5742.82479195    -5700.63674494
  entropy T*S    EENTRO =        -0.00000003
  eigenvalues    EBANDS =      -545.10368560
  atomic energy  EATOM  =      4831.84262874
  Solvation  Ediel_sol  =         0.00000000
  ---------------------------------------------------
  free energy    TOTEN  =       -42.75930508 eV

  energy without entropy =      -42.75930505  energy(sigma->0) =      -42.75930507


--------------------------------------------------------------------------------------------------------




--------------------------------------- Iteration      1(  12)  ---------------------------------------


    POTLOK:  cpu time    0.0551: real time    0.0587
    SETDIJ:  cpu time    0.0054: real time    0.0054
     EDDAV:  cpu time    0.4536: real time    0.4537
       DOS:  cpu time    0.0004: real time    0.0004
    CHARGE:  cpu time    0.0365: real time    0.0365
    MIXING:  cpu time    0.0016: real time    0.0016
    --------------------------------------------
      LOOP:  cpu time    0.5526: real time    0.5563

 eigenvalue-minimisations  :   528
 total energy-change (2. order) :-0.1761297E-03  (-0.1395320E-03)
 number of electron      51.9999991 magnetization 
 augmentation part        1.5584719 magnetization 

 Broyden mixing:
  rms(total) = 0.68369E-02    rms(broyden)= 0.68368E-02
  rms(prec ) = 0.81002E-02
  weight for this iteration     100.00

 eigenvalues of (default mixing * dielectric matrix)
  average eigenvalue GAMMA=   1.2142
  2.2848  2.2848  1.2151  0.7936  0.7936  0.5415  0.5860

 Free energy of the ion-electron system (eV)
  ---------------------------------------------------
  alpha Z        PSCENC =       160.27286088
  Ewald energy   TEWEN  =     -2912.06566374
  -Hartree energ DENC   =     -1801.26941861
  -exchange      EXHF   =         0.00000000
  -V(xc)+E(xc)   XCENC  =       181.05003214
  PAW double counting   =      5748.45505587    -5706.26575068
  entropy T*S    EENTRO =        -0.00000003
  eigenvalues    EBANDS =      -544.77922578
  atomic energy  EATOM  =      4831.84262874
  Solvation  Ediel_sol  =         0.00000000
  ---------------------------------------------------
  free energy    TOTEN  =       -42.75948121 eV

  energy without entropy =      -42.75948119  energy(sigma->0) =      -42.75948120


--------------------------------------------------------------------------------------------------------




--------------------------------------- Iteration      1(  13)  ---------------------------------------


    POTLOK:  cpu time    0.0550: real time    0.0588
    SETDIJ:  cpu time    0.0054: real time    0.0054
     EDDAV:  cpu time    0.4220: real time    0.4220
       DOS:  cpu time    0.0005: real time    0.0005
    CHARGE:  cpu time    0.0365: real time    0.0365
    MIXING:  cpu time    0.0016: real time    0.0016
    --------------------------------------------
      LOOP:  cpu time    0.5210: real time    0.5248

 eigenvalue-minimisations  :   480
 total energy-change (2. order) : 0.5193683E-05  (-0.1838099E-04)
 number of electron      51.9999991 magnetization 
 augmentation part        1.5573318 magnetization 

 Broyden mixing:
  rms(total) = 0.43776E-02    rms(broyden)= 0.43776E-02
  rms(prec ) = 0.47765E-02
  weight for this iteration     100.00

 eigenvalues of (default mixing * dielectric matrix)
  average eigenvalue GAMMA=   1.1941
  2.3522  2.3522  1.2044  0.9117  0.9117  0.5401  0.6403  0.6403

 Free energy of the ion-electron system (eV)
  ---------------------------------------------------
  alpha Z        PSCENC =       160.27286088
  Ewald energy   TEWEN  =     -2912.06566374
  -Hartree energ DENC   =     -1801.39544743
  -exchange      EXHF   =         0.00000000
  -V(xc)+E(xc)   XCENC  =       181.05236654
  PAW double counting   =      5741.59742797    -5699.39637377
  entropy T*S    EENTRO =        -0.00000003
  eigenvalues    EBANDS =      -544.66727517
  atomic energy  EATOM  =      4831.84262874
  Solvation  Ediel_sol  =         0.00000000
  ---------------------------------------------------
  free energy    TOTEN  =       -42.75947602 eV

  energy without entropy =      -42.75947599  energy(sigma->0) =      -42.75947600


--------------------------------------------------------------------------------------------------------




--------------------------------------- Iteration      1(  14)  ---------------------------------------


    POTLOK:  cpu time    0.0552: real time    0.0584
    SETDIJ:  cpu time    0.0054: real time    0.0054
     EDDAV:  cpu time    0.4210: real time    0.4211
       DOS:  cpu time    0.0004: real time    0.0004
    CHARGE:  cpu time    0.0365: real time    0.0365
    MIXING:  cpu time    0.0017: real time    0.0017
    --------------------------------------------
      LOOP:  cpu time    0.5202: real time    0.5235

 eigenvalue-minimisations  :   480
 total energy-change (2. order) :-0.1603516E-04  (-0.4584485E-05)
 number of electron      51.9999991 magnetization 
 augmentation part        1.5580104 magnetization 

 Broyden mixing:
  rms(total) = 0.28453E-02    rms(broyden)= 0.28453E-02
  rms(prec ) = 0.30824E-02
  weight for this iteration     100.00

 eigenvalues of (default mixing * dielectric matrix)
  average eigenvalue GAMMA=   1.2293
  2.3932  2.3932  1.3345  1.3345  0.5394  0.5996  0.9037  0.7828  0.7828

 Free energy of the ion-electron system (eV)
  ---------------------------------------------------
  alpha Z        PSCENC =       160.27286088
  Ewald energy   TEWEN  =     -2912.06566374
  -Hartree energ DENC   =     -1801.43773784
  -exchange      EXHF   =         0.00000000
  -V(xc)+E(xc)   XCENC  =       181.05376008
  PAW double counting   =      5740.83976693    -5698.64026050
  entropy T*S    EENTRO =        -0.00000003
  eigenvalues    EBANDS =      -544.62484657
  atomic energy  EATOM  =      4831.84262874
  Solvation  Ediel_sol  =         0.00000000
  ---------------------------------------------------
  free energy    TOTEN  =       -42.75949205 eV

  energy without entropy =      -42.75949202  energy(sigma->0) =      -42.75949204


--------------------------------------------------------------------------------------------------------




--------------------------------------- Iteration      1(  15)  ---------------------------------------


    POTLOK:  cpu time    0.0551: real time    0.0575
    SETDIJ:  cpu time    0.0054: real time    0.0054
     EDDAV:  cpu time    0.3720: real time    0.3721
       DOS:  cpu time    0.0004: real time    0.0004
    CHARGE:  cpu time    0.0365: real time    0.0365
    MIXING:  cpu time    0.0017: real time    0.0017
    --------------------------------------------
      LOOP:  cpu time    0.4711: real time    0.4736

 eigenvalue-minimisations  :   400
 total energy-change (2. order) :-0.1403857E-04  (-0.2417753E-05)
 number of electron      51.9999991 magnetization 
 augmentation part        1.5583177 magnetization 

 Broyden mixing:
  rms(total) = 0.87837E-03    rms(broyden)= 0.87837E-03
  rms(prec ) = 0.96576E-03
  weight for this iteration     100.00

 eigenvalues of (default mixing * dielectric matrix)
  average eigenvalue GAMMA=   1.2731
  2.6075  2.2249  1.8257  1.5805  0.9422  0.9422  0.5393  0.6039  0.7326  0.7326

 Free energy of the ion-electron system (eV)
  ---------------------------------------------------
  alpha Z        PSCENC =       160.27286088
  Ewald energy   TEWEN  =     -2912.06566374
  -Hartree energ DENC   =     -1801.48968517
  -exchange      EXHF   =         0.00000000
  -V(xc)+E(xc)   XCENC  =       181.05556560
  PAW double counting   =      5740.16809954    -5697.96877274
  entropy T*S    EENTRO =        -0.00000003
  eigenvalues    EBANDS =      -544.57453917
  atomic energy  EATOM  =      4831.84262874
  Solvation  Ediel_sol  =         0.00000000
  ---------------------------------------------------
  free energy    TOTEN  =       -42.75950609 eV

  energy without entropy =      -42.75950606  energy(sigma->0) =      -42.75950608


--------------------------------------------------------------------------------------------------------




--------------------------------------- Iteration      1(  16)  ---------------------------------------


    POTLOK:  cpu time    0.0552: real time    0.0579
    SETDIJ:  cpu time    0.0054: real time    0.0054
     EDDAV:  cpu time    0.3956: real time    0.3957
       DOS:  cpu time    0.0004: real time    0.0004
    CHARGE:  cpu time    0.0367: real time    0.0367
    MIXING:  cpu time    0.0018: real time    0.0018
    --------------------------------------------
      LOOP:  cpu time    0.4950: real time    0.4978

 eigenvalue-minimisations  :   440
 total energy-change (2. order) :-0.3389539E-05  (-0.3376683E-06)
 number of electron      51.9999991 magnetization 
 augmentation part        1.5584094 magnetization 

 Broyden mixing:
  rms(total) = 0.27814E-03    rms(broyden)= 0.27813E-03
  rms(prec ) = 0.31495E-03
  weight for this iteration     100.00

 eigenvalues of (default mixing * dielectric matrix)
  average eigenvalue GAMMA=   1.2920
  2.8405  2.1259  2.1259  1.6230  0.9957  0.9957  0.5394  0.6043  0.7190  0.8213
  0.8213

 Free energy of the ion-electron system (eV)
  ---------------------------------------------------
  alpha Z        PSCENC =       160.27286088
  Ewald energy   TEWEN  =     -2912.06566374
  -Hartree energ DENC   =     -1801.50211498
  -exchange      EXHF   =         0.00000000
  -V(xc)+E(xc)   XCENC  =       181.05632030
  PAW double counting   =      5740.02914903    -5697.82969051
  entropy T*S    EENTRO =        -0.00000003
  eigenvalues    EBANDS =      -544.56299918
  atomic energy  EATOM  =      4831.84262874
  Solvation  Ediel_sol  =         0.00000000
  ---------------------------------------------------
  free energy    TOTEN  =       -42.75950948 eV

  energy without entropy =      -42.75950945  energy(sigma->0) =      -42.75950947


--------------------------------------------------------------------------------------------------------




--------------------------------------- Iteration      1(  17)  ---------------------------------------


    POTLOK:  cpu time    0.0550: real time    0.0580
    SETDIJ:  cpu time    0.0054: real time    0.0054
     EDDAV:  cpu time    0.2889: real time    0.2891
       DOS:  cpu time    0.0004: real time    0.0004
    --------------------------------------------
      LOOP:  cpu time    0.3498: real time    0.3530

 eigenvalue-minimisations  :   264
 total energy-change (2. order) :-0.6295613E-06  (-0.5533692E-07)
 number of electron      51.9999991 magnetization 
 augmentation part        1.5584094 magnetization 

 Free energy of the ion-electron system (eV)
  ---------------------------------------------------
  alpha Z        PSCENC =       160.27286088
  Ewald energy   TEWEN  =     -2912.06566374
  -Hartree energ DENC   =     -1801.50776423
  -exchange      EXHF   =         0.00000000
  -V(xc)+E(xc)   XCENC  =       181.05665343
  PAW double counting   =      5740.11290333    -5697.91334357
  entropy T*S    EENTRO =        -0.00000003
  eigenvalues    EBANDS =      -544.55778491
  atomic energy  EATOM  =      4831.84262874
  Solvation  Ediel_sol  =         0.00000000
  ---------------------------------------------------
  free energy    TOTEN  =       -42.75951011 eV

  energy without entropy =      -42.75951008  energy(sigma->0) =      -42.75951010


--------------------------------------------------------------------------------------------------------




 average (electrostatic) potential at core
  the test charge radii are     1.0818  0.9698
  (the norm of the test charge is              1.0000)
       1 -75.9526       2 -75.8994       3 -85.6045       4 -85.7091       5 -85.6135
       6 -85.6856
 
 
 
 E-fermi :   6.4640     XC(G=0): -10.2136     alpha+bet :-12.2268

 Fermi energy:         6.4639735112

 k-point     1 :       0.2500    0.2500    0.0000
  band No.  band energies     occupation 
      1     -55.1619      2.00000
      2     -55.1082      2.00000
      3     -29.3655      2.00000
      4     -29.3451      2.00000
      5     -29.3385      2.00000
      6     -29.2572      2.00000
      7     -29.2256      2.00000
      8     -29.2045      2.00000
      9      -6.5412      2.00000
     10      -6.4701      2.00000
     11      -6.3102      2.00000
     12      -6.1652      2.00000
     13       0.6322      2.00000
     14       0.7672      2.00000
     15       0.8434      2.00000
     16       1.1995      2.00000
     17       2.0116      2.00000
     18       2.0982      2.00000
     19       2.3681      2.00000
     20       2.5526      2.00000
     21       2.6296      2.00000
     22       2.8425      2.00000
     23       3.6947      2.00000
     24       4.0531      2.00000
     25       5.2332      2.00000
     26       6.2471      2.00000
     27       6.7738      0.00000
     28       7.8274      0.00000
     29       8.1948      0.00000
     30       8.5171      0.00000
     31       8.7628      0.00000
     32       8.8337      0.00000

 k-point     2 :      -0.2500    0.5000    0.0000
  band No.  band energies     occupation 
      1     -55.1614      2.00000
      2     -55.1082      2.00000
      3     -29.4358      2.00000
      4     -29.3457      2.00000
      5     -29.3321      2.00000
      6     -29.2572      2.00000
      7     -29.2038      2.00000
      8     -29.1667      2.00000
      9      -6.5443      2.00000
     10      -6.5279      2.00000
     11      -6.3015      2.00000
     12      -6.1585      2.00000
     13       0.6018      2.00000
     14       0.6732      2.00000
     15       0.8397      2.00000
     16       1.4889      2.00000
     17       2.0155      2.00000
     18       2.0977      2.00000
     19       2.5052      2.00000
     20       2.5982      2.00000
     21       2.7940      2.00000
     22       2.8896      2.00000
     23       3.2931      2.00000
     24       4.0613      2.00000
     25       5.2336      2.00000
     26       6.2855      2.00000
     27       6.6424      0.00000
     28       7.8321      0.00000
     29       8.1545      0.00000
     30       8.3728      0.00000
     31       8.6231      0.00000
     32       8.8173      0.00000

 k-point     3 :       0.5000    0.2500    0.0000
  band No.  band energies     occupation 
      1     -55.1618      2.00000
      2     -55.1082      2.00000
      3     -29.3867      2.00000
      4     -29.3450      2.00000
      5     -29.3225      2.00000
      6     -29.2572      2.00000
      7     -29.2204      2.00000
      8     -29.2046      2.00000
      9      -6.5409      2.00000
     10      -6.4710      2.00000
     11      -6.3097      2.00000
     12      -6.1668      2.00000
     13       0.6314      2.00000
     14       0.7540      2.00000
     15       0.8429      2.00000
     16       1.2161      2.00000
     17       2.0123      2.00000
     18       2.0986      2.00000
     19       2.3656      2.00000
     20       2.5520      2.00000
     21       2.6506      2.00000
     22       2.8449      2.00000
     23       3.6796      2.00000
     24       4.0536      2.00000
     25       5.2332      2.00000
     26       6.2252      2.00000
     27       6.7812      0.00000
     28       7.8292      0.00000
     29       8.1971      0.00000
     30       8.5116      0.00000
     31       8.7522      0.00000
     32       8.8330      0.00000

 k-point     4 :      -0.2500    0.2500    0.0000
  band No.  band energies     occupation 
      1     -55.1789      2.00000
      2     -55.1261      2.00000
      3     -29.3681      2.00000
      4     -29.3055      2.00000
      5     -29.2930      2.00000
      6     -29.2348      2.00000
      7     -29.0947      2.00000
      8     -29.0811      2.00000
      9      -7.5420      2.00000
     10      -7.3060      2.00000
     11      -6.8913      2.00000
     12      -6.6991      2.00000
     13       0.6762      2.00000
     14       1.2567      2.00000
     15       1.5825      2.00000
     16       1.9491      2.00000
     17       2.1377      2.00000
     18       2.2926      2.00000
     19       3.2396      2.00000
     20       3.3140      2.00000
     21       3.9398      2.00000
     22       3.9590      2.00000
     23       4.3810      2.00000
     24       4.5655      2.00000
     25       5.0100      2.00000
     26       5.5540      2.00000
     27       6.8230      0.00000
     28       7.3983      0.00000
     29       8.0061      0.00000
     30       8.0699      0.00000
     31       8.5323      0.00000
     32       8.9377      0.00000

 k-point     5 :      -0.2500    0.0000    0.0000
  band No.  band energies     occupation 
      1     -55.1794      2.00000
      2     -55.1261      2.00000
      3     -29.3742      2.00000
      4     -29.2930      2.00000
      5     -29.2342      2.00000
      6     -29.1932      2.00000
      7     -29.1817      2.00000
      8     -29.0954      2.00000
      9      -7.5510      2.00000
     10      -7.4008      2.00000
     11      -6.7965      2.00000
     12      -6.6470      2.00000
     13       0.6255      2.00000
     14       1.0536      2.00000
     15       1.7726      2.00000
     16       1.9542      2.00000
     17       2.1820      2.00000
     18       2.5824      2.00000
     19       2.8208      2.00000
     20       3.2409      2.00000
     21       3.8782      2.00000
     22       3.9489      2.00000
     23       4.5422      2.00000
     24       4.8792      2.00000
     25       4.9686      2.00000
     26       5.2749      2.00000
     27       6.7258      0.00000
     28       7.1291      0.00000
     29       7.9225      0.00000
     30       8.0708      0.00000
     31       8.5532      0.00000
     32       8.9962      0.00000

 k-point     6 :       0.0000   -0.2500    0.0000
  band No.  band energies     occupation 
      1     -55.1789      2.00000
      2     -55.1261      2.00000
      3     -29.3641      2.00000
      4     -29.3036      2.00000
      5     -29.2930      2.00000
      6     -29.2349      2.00000
      7     -29.0946      2.00000
      8     -29.0868      2.00000
      9      -7.5422      2.00000
     10      -7.3105      2.00000
     11      -6.8860      2.00000
     12      -6.6980      2.00000
     13       0.6750      2.00000
     14       1.2553      2.00000
     15       1.5886      2.00000
     16       1.9470      2.00000
     17       2.1398      2.00000
     18       2.2965      2.00000
     19       3.2388      2.00000
     20       3.2831      2.00000
     21       3.9443      2.00000
     22       3.9685      2.00000
     23       4.3724      2.00000
     24       4.5538      2.00000
     25       5.0104      2.00000
     26       5.6040      2.00000
     27       6.8172      0.00000
     28       7.3798      0.00000
     29       8.0039      0.00000
     30       8.0698      0.00000
     31       8.5331      0.00000
     32       8.9264      0.00000


--------------------------------------------------------------------------------------------------------


 soft charge-density along one line, spin component           1
         0         1         2         3         4         5         6         7         8         9
 total charge-density along one line
 
 pseudopotential strength for first ion, spin component:           1
 -5.043  11.452  -0.002  -0.007   0.003   0.000   0.005  -0.001
 11.452   3.262   0.000   0.004  -0.001   0.001  -0.001  -0.001
 -0.002   0.000 -18.144   0.005  -0.005   8.983  -0.006   0.007
 -0.007   0.004   0.005 -18.160  -0.006  -0.006   9.000   0.007
  0.003  -0.001  -0.005  -0.006 -18.135   0.007   0.007   8.970
  0.000   0.001   8.983  -0.006   0.007   5.712   0.003  -0.004
  0.005  -0.001  -0.006   9.000   0.007   0.003   5.700  -0.004
 -0.001  -0.001   0.007   0.007   8.970  -0.004  -0.004   5.718
 -0.007   0.005   0.002  -0.003   0.004  -0.001   0.001  -0.002
  0.006  -0.003  -0.006   0.000  -0.003   0.003  -0.001   0.001
 -0.013   0.007   0.002  -0.006  -0.002  -0.000   0.003   0.001
 -0.007   0.004  -0.003   0.000  -0.003   0.001   0.000   0.002
  0.006  -0.004   0.007   0.002   0.002  -0.003  -0.001  -0.001
 -0.007   0.005   0.002  -0.003   0.004  -0.001   0.001  -0.003
  0.006  -0.004  -0.007   0.000  -0.003   0.003  -0.001   0.001
 -0.014   0.008   0.002  -0.007  -0.002  -0.000   0.003   0.001
 -0.008   0.004  -0.003   0.000  -0.003   0.001  -0.000   0.002
  0.006  -0.004   0.007   0.002   0.002  -0.003  -0.001  -0.001
 total augmentation occupancy for first ion, spin component:           1
  1.995  -0.040   0.000   0.000  -0.000   0.000   0.000  -0.000   0.007  -0.007   0.024   0.010  -0.007  -0.007   0.006  -0.023
 -0.040   1.212   0.004   0.005  -0.005  -0.014  -0.018   0.017  -0.322   0.074  -0.205  -0.070   0.202   0.302  -0.100   0.294
  0.000   0.004   1.998  -0.000   0.000  -0.043   0.001  -0.002  -0.003   0.007  -0.000  -0.008   0.001   0.003  -0.007   0.001
  0.000   0.005  -0.000   1.998   0.000   0.001  -0.049  -0.002  -0.004   0.009   0.006  -0.011   0.003  -0.001  -0.004  -0.008
 -0.000  -0.005   0.000   0.000   1.998  -0.002  -0.002  -0.041   0.006  -0.007   0.002   0.017  -0.004  -0.001   0.001  -0.002
  0.000  -0.014  -0.043   0.001  -0.002   0.092  -0.006   0.009  -0.006   0.025   0.014  -0.065   0.036   0.006  -0.021  -0.016
  0.000  -0.018   0.001  -0.049  -0.002  -0.006   0.117   0.008  -0.086   0.020  -0.031  -0.016   0.053   0.096  -0.034   0.039
 -0.000   0.017  -0.002  -0.002  -0.041   0.009   0.008   0.081   0.048  -0.066  -0.018   0.107  -0.007  -0.067   0.084   0.018
  0.007  -0.322  -0.003  -0.004   0.006  -0.006  -0.086   0.048   2.510   0.052   0.206   0.944  -0.058  -2.628  -0.093  -0.152
 -0.007   0.074   0.007   0.009  -0.007   0.025   0.020  -0.066   0.052   4.030  -0.063   0.736   1.061  -0.093  -4.844   0.147
  0.024  -0.205  -0.000   0.006   0.002   0.014  -0.031  -0.018   0.206  -0.063   1.873   0.019  -0.144  -0.151   0.147  -1.980
  0.010  -0.070  -0.008  -0.011   0.017  -0.065  -0.016   0.107   0.944   0.736   0.019   3.104   0.076  -1.341  -0.919  -0.124
 -0.007   0.202   0.001   0.003  -0.004   0.036   0.053  -0.007  -0.058   1.061  -0.144   0.076   2.485   0.159  -1.528   0.100
 -0.007   0.302   0.003  -0.001  -0.001   0.006   0.096  -0.067  -2.628  -0.093  -0.151  -1.341   0.159   3.546   0.117   0.145
  0.006  -0.100  -0.007  -0.004   0.001  -0.021  -0.034   0.084  -0.093  -4.844   0.147  -0.919  -1.528   0.117   6.324  -0.202
 -0.023   0.294   0.001  -0.008  -0.002  -0.016   0.039   0.018  -0.152   0.147  -1.980  -0.124   0.100   0.145  -0.202   2.871
 -0.009   0.104   0.001   0.005  -0.009   0.083   0.033  -0.124  -1.340  -0.919  -0.124  -3.697  -0.114   1.642   1.093   0.191
  0.007  -0.188   0.003   0.000   0.003  -0.053  -0.058   0.007   0.159  -1.529   0.100  -0.114  -2.460  -0.201   1.877  -0.092


------------------------ aborting loop because EDIFF is reached ----------------------------------------


    CHARGE:  cpu time    0.0374: real time    0.0375
    FORLOC:  cpu time    0.0047: real time    0.0047
    FORNL :  cpu time    0.0732: real time    0.0732
    STRESS:  cpu time    0.1505: real time    0.1505
    FORCOR:  cpu time    0.0592: real time    0.0593
    FORHAR:  cpu time    0.0146: real time    0.0146
    MIXING:  cpu time    0.0019: real time    0.0019
    OFIELD:  cpu time    0.0000: real time    0.0000

  FORCE on cell =-STRESS in cart. coord.  units (eV):
  Direction    XX          YY          ZZ          XY          YZ          ZX
  --------------------------------------------------------------------------------------
  Alpha Z   160.27286   160.27286   160.27286
  Ewald    -152.64816  -101.26300 -2658.15705    42.05995   -11.73764    13.84148
  Hartree  1295.39706  1314.67213  -808.54799    16.04793    -3.62410     4.39875
  E(xc)    -218.80327  -218.72253  -219.05184     0.06937    -0.01770     0.02152
  Local   -2150.45018 -2219.51142  2455.14327   -57.24861    14.58509   -17.12957
  n-local   236.15725   237.69705   248.07251     1.28677    -0.93032     1.10332
  augment    -0.79784    -1.29619    -4.23838    -0.35662     0.27534    -0.33395
  Kinetic   830.23908   827.47903   823.29122    -2.02339     0.40854    -0.47327
  Fock        0.00000     0.00000     0.00000     0.00000     0.00000     0.00000
  -------------------------------------------------------------------------------------
  Total      -0.63320    -0.67208    -3.21539    -0.16461    -1.04080     1.42829
  in kB      -8.59265    -9.12031   -43.63371    -2.23379   -14.12397    19.38230
  external pressure =      -20.45 kB  Pullay stress =        0.00 kB


 VOLUME and BASIS-vectors are now :
 -----------------------------------------------------------------------------
  energy-cutoff  :      500.00
  volume of cell :      118.07
      direct lattice vectors                 reciprocal lattice vectors
     1.596118927 -2.764559076  0.000000000     0.313259865 -0.180860668  0.000000000
     1.596118927  2.764559076  0.000000000     0.313259865  0.180860668  0.000000000
     0.000000000  0.000000000 13.378293991     0.000000000  0.000000000  0.074747946

  length of vectors
     3.192237854  3.192237854 13.378293991     0.361721335  0.361721335  0.074747946


 FORCES acting on ions
    electron-ion (+dipol)            ewald-force                    non-local-force                 convergence-correction
 -----------------------------------------------------------------------------------------------
   0.828E+01 -.708E+01 0.349E+01   -.747E+01 0.651E+01 -.455E+01   -.912E+00 0.683E+00 0.746E+00   -.197E-04 -.126E-05 0.413E-03
   0.166E-01 -.953E-02 -.232E+02   -.211E-01 0.121E-01 0.232E+02   -.614E-02 0.367E-02 0.320E-01   0.996E-05 -.629E-05 0.108E-02
   0.972E-01 -.794E-01 0.404E+03   -.935E-01 0.789E-01 -.409E+03   -.566E-02 0.286E-02 0.507E+01   -.552E-05 -.190E-05 0.536E-03
   -.864E+01 0.732E+01 -.365E+03   0.796E+01 -.681E+01 0.368E+03   0.118E+01 -.884E+00 -.415E+01   -.305E-04 0.192E-04 0.231E-02
   0.602E-02 -.355E-02 -.424E+03   -.108E-03 0.919E-04 0.429E+03   0.787E-03 -.466E-03 -.501E+01   -.180E-05 0.525E-05 0.462E-03
   0.482E+00 -.303E+00 0.403E+03   -.370E+00 0.212E+00 -.407E+03   -.498E+00 0.354E+00 0.474E+01   -.486E-04 0.277E-04 -.322E-02
 -----------------------------------------------------------------------------------------------
   0.242E+00 -.159E+00 -.144E+01   -.301E-13 0.683E-14 0.114E-12   -.242E+00 0.159E+00 0.144E+01   -.961E-04 0.427E-04 0.157E-02
 
 
 POSITION                                       TOTAL-FORCE (eV/Angst)
 -----------------------------------------------------------------------------------
      1.59612     -0.92152      3.34457        -0.107054      0.112058     -0.316511
      1.59612      0.92152     10.03372        -0.010663      0.006271      0.015081
      1.59612     -0.92152      8.46956        -0.001930      0.002405      0.293596
      2.77508      0.26530      5.08954         0.498978     -0.380022     -0.613992
      1.59612     -0.92152     11.59788         0.006691     -0.003927     -0.296266
      1.59612      0.92152      1.78041        -0.386022      0.263215      0.918092
 -----------------------------------------------------------------------------------
    total drift:                                0.000011      0.000017     -0.000080


--------------------------------------------------------------------------------------------------------



  FREE ENERGIE OF THE ION-ELECTRON SYSTEM (eV)
  ---------------------------------------------------
  free  energy   TOTEN  =       -42.75951011 eV

  energy  without entropy=      -42.75951008  energy(sigma->0) =      -42.75951010
 


--------------------------------------------------------------------------------------------------------


    POTLOK:  cpu time    0.0605: real time    0.0605


--------------------------------------------------------------------------------------------------------


 stress matrix after NEB project (eV)
     -0.63320     -0.16461      1.42829
     -0.16461     -0.67208     -1.04080
      1.42829     -1.04080     -3.21539
  FORCES: max atom, RMS     1.030140    0.595845
  FORCE total and by dimension    1.459517    0.918092
  Stress total and by dimension    4.182357    3.215388
 writing wavefunctions
     LOOP+:  cpu time    9.2491: real time    9.3161
    4ORBIT:  cpu time    0.0000: real time    0.0000

 total amount of memory used by VASP MPI-rank0    38677. kBytes
=======================================================================

   base      :      30000. kBytes
   nonl-proj :       1371. kBytes
   fftplans  :       2330. kBytes
   grid      :       3750. kBytes
   one-center:         31. kBytes
   wavefun   :       1195. kBytes
 
  
  
 General timing and accounting informations for this job:
 ========================================================
  
                  Total CPU time used (sec):       10.852
                            User time (sec):       10.009
                          System time (sec):        0.843
                         Elapsed time (sec):       11.346
  
                   Maximum memory used (kb):      128220.
                   Average memory used (kb):          N/A
  
                          Minor page faults:        26707
                          Major page faults:            0
                 Voluntary context switches:          976
