 vasp.6.2.0 18Jan21 (build Jul 31 2023 14:19:35) complex                        
  
 executed on             LinuxIFC date 2025.09.17  14:42:50
 running on    8 total cores
 distrk:  each k-point on    8 cores,    1 groups
 distr:  one band on NCORE=   4 cores,    2 groups


--------------------------------------------------------------------------------------------------------


 INCAR:
   SYSTEM = MoS2_SinglePoint_vdW_Coulomb
   PREC = Accurate
   ENCUT = 500
   GGA = PE
   ALGO = Normal
   NELM = 100
   NELMIN = 5
   EDIFF = 1E-6
   ISMEAR = 0
   SIGMA = 0.05
   IBRION = -1
   NSW = 0
   LREAL = .FALSE.
   LCHARG = .TRUE.
   LWAVE = .TRUE.
   NWRITE = 1
   NCORE = 4

 POTCAR:    PAW_PBE Mo_sv 02Feb2006               
 POTCAR:    PAW_PBE S 06Sep2000                   
 POTCAR:    PAW_PBE Mo_sv 02Feb2006               
  local pseudopotential read in
  partial core-charges read in
  partial kinetic energy density read in
  atomic valenz-charges read in
  non local Contribution for L=           0  read in
    real space projection operators read in
  non local Contribution for L=           0  read in
    real space projection operators read in
  non local Contribution for L=           1  read in
    real space projection operators read in
  non local Contribution for L=           1  read in
    real space projection operators read in
  non local Contribution for L=           2  read in
    real space projection operators read in
  non local Contribution for L=           2  read in
    real space projection operators read in
    PAW grid and wavefunctions read in
 
   number of l-projection  operators is LMAX  =           6
   number of lm-projection operators is LMMAX =          18
 
 POTCAR:    PAW_PBE S 06Sep2000                   
  local pseudopotential read in
  partial core-charges read in
  partial kinetic energy density read in
  atomic valenz-charges read in
  non local Contribution for L=           0  read in
    real space projection operators read in
  non local Contribution for L=           0  read in
    real space projection operators read in
  non local Contribution for L=           1  read in
    real space projection operators read in
  non local Contribution for L=           1  read in
    real space projection operators read in
    PAW grid and wavefunctions read in
 
   number of l-projection  operators is LMAX  =           4
   number of lm-projection operators is LMMAX =           8
 
  PAW_PBE Mo_sv 02Feb2006               :
 energy of atom  1       EATOM=-1862.2866
 kinetic energy error for atom=    0.0074 (will be added to EATOM!!)
  PAW_PBE S 06Sep2000                   :
 energy of atom  2       EATOM= -276.8230
 kinetic energy error for atom=    0.0020 (will be added to EATOM!!)
 
 
 POSCAR: Mo S
  positions in direct lattice
  No initial velocities read in
 exchange correlation table for  LEXCH =        8
   RHO(1)=    0.500       N(1)  =     2000
   RHO(2)=  100.500       N(2)  =     4000

 VTST: version 4.0, (05/15/20)

 CHAIN: initializing optimizer
 
 OPT: Using VASP Dynamics algorithm
 CHAIN: Read ICHAIN            0
 
 POSCAR: Mo S
  positions in direct lattice
  No initial velocities read in
 


--------------------------------------------------------------------------------------------------------


 ion  position               nearest neighbor table
   1  0.667  0.333  0.250-   6 2.42   6 2.42   4 2.42   6 2.42   4 2.73
   2  0.333  0.667  0.750-   3 2.42   5 2.42   3 2.42   5 2.42   3 2.42   5 2.42
   3  0.667  0.333  0.633-   2 2.42   2 2.42   2 2.42
   4  0.032  0.808  0.399-   1 2.42   1 2.73
   5  0.667  0.333  0.867-   2 2.42   2 2.42   2 2.42
   6  0.333  0.667  0.133-   1 2.42   1 2.42   1 2.42
 
  LATTYP: Found a hexagonal cell.
 ALAT       =     3.1922378540
 C/A-ratio  =     4.1908825730
  
  Lattice vectors:
  
 A1 = (   1.5961189270,  -2.7645590765,   0.0000000000)
 A2 = (   1.5961189270,   2.7645590765,   0.0000000000)
 A3 = (   0.0000000000,   0.0000000000,  13.3782939911)


Analysis of symmetry for initial positions (statically):
=====================================================================
 Subroutine PRICEL returns:
 Original cell was already a primitive cell.
 

 Routine SETGRP: Setting up the symmetry group for a 
 hexagonal supercell.


 Subroutine GETGRP returns: Found  1 space group operations
 (whereof  1 operations were pure point group operations)
 out of a pool of 24 trial point group operations.


The static configuration has the point symmetry C_1 .


Analysis of symmetry for dynamics (positions and initial velocities):
=====================================================================
 Subroutine PRICEL returns:
 Original cell was already a primitive cell.
 

 Routine SETGRP: Setting up the symmetry group for a 
 hexagonal supercell.


 Subroutine GETGRP returns: Found  1 space group operations
 (whereof  1 operations were pure point group operations)
 out of a pool of 24 trial point group operations.


The dynamic configuration has the point symmetry C_1 .


 Subroutine INISYM returns: Found  1 space group operations
 (whereof  1 operations are pure point group operations),
 and found     1 'primitive' translations


----------------------------------------------------------------------------------------

                                     Primitive cell                                     

  volume of cell :     118.0652

  direct lattice vectors                    reciprocal lattice vectors
     1.596118927 -2.764559076  0.000000000     0.313259865 -0.180860668  0.000000000
     1.596118927  2.764559076  0.000000000     0.313259865  0.180860668  0.000000000
     0.000000000  0.000000000 13.378293991     0.000000000  0.000000000  0.074747946

  length of vectors
     3.192237854  3.192237854 13.378293991     0.361721335  0.361721335  0.074747946

  position of ions in fractional coordinates (direct lattice)
     0.666666667  0.333333333  0.250000000
     0.333333333  0.666666667  0.750000000
     0.666666667  0.333333333  0.633082000
     0.031895218  0.808055070  0.398641380
     0.666666667  0.333333333  0.866918000
     0.333333333  0.666666667  0.133082000

  ion indices of the primitive-cell ions
   primitive index   ion index
                 1           1
                 2           2
                 3           3
                 4           4
                 5           5
                 6           6

----------------------------------------------------------------------------------------

 
 
 KPOINTS: K-Spacing Value to Generate K-Mesh: 0.15

Automatic generation of k-mesh.
 Grid dimensions read from file:
 generate k-points for:    2    2    1

 Generating k-lattice:

  Cartesian coordinates                     Fractional coordinates (reciprocal lattice)
     0.156629933 -0.090430334  0.000000000     0.500000000  0.000000000  0.000000000
     0.156629933  0.090430334  0.000000000     0.000000000  0.500000000  0.000000000
     0.000000000  0.000000000  0.074747946     0.000000000  0.000000000  1.000000000

  Length of vectors
     0.180860668  0.180860668  0.074747946

  Shift w.r.t. Gamma in fractional coordinates (k-lattice)
     0.500000000  0.500000000  0.000000000

 
 Subroutine IBZKPT returns following result:
 ===========================================
 
 Found      6 irreducible k-points:
 
 Following reciprocal coordinates:
            Coordinates               Weight
  0.250000  0.250000  0.000000      2.000000
 -0.250000  0.500000  0.000000      2.000000
  0.500000  0.250000  0.000000      2.000000
 -0.250000  0.250000  0.000000      2.000000
 -0.250000  0.000000  0.000000      2.000000
  0.000000 -0.250000  0.000000      2.000000
 
 Following cartesian coordinates:
            Coordinates               Weight
  0.156630  0.000000  0.000000      2.000000
  0.078315  0.135646  0.000000      2.000000
  0.234945 -0.045215  0.000000      2.000000
  0.000000  0.090430  0.000000      2.000000
 -0.078315  0.045215  0.000000      2.000000
 -0.078315 -0.045215  0.000000      2.000000
 


--------------------------------------------------------------------------------------------------------




 Dimension of arrays:
   k-points           NKPTS =      6   k-points in BZ     NKDIM =      6   number of bands    NBANDS=     32
   number of dos      NEDOS =    301   number of ions     NIONS =      6
   non local maximal  LDIM  =      6   non local SUM 2l+1 LMDIM =     18
   total plane-waves  NPLWV =  56448
   max r-space proj   IRMAX =      1   max aug-charges    IRDMAX=  21106
   dimension x,y,z NGX =    24 NGY =   24 NGZ =   98
   dimension x,y,z NGXF=    48 NGYF=   48 NGZF=  196
   support grid    NGXF=    48 NGYF=   48 NGZF=  196
   ions per type =               2   4
   NGX,Y,Z   is equivalent  to a cutoff of  12.50, 12.50, 12.18 a.u.
   NGXF,Y,Z  is equivalent  to a cutoff of  25.00, 25.00, 24.36 a.u.

 SYSTEM =  MoS2_SinglePoint_vdW_Coulomb           
 POSCAR =  Mo S                                    

 Startparameter for this run:
   NWRITE =      1    write-flag & timer
   PREC   = accura    normal or accurate (medium, high low for compatibility)
   ISTART =      0    job   : 0-new  1-cont  2-samecut
   ICHARG =      2    charge: 1-file 2-atom 10-const
   ISPIN  =      1    spin polarized calculation?
   LNONCOLLINEAR =      F non collinear calculations
   LSORBIT =      F    spin-orbit coupling
   INIWAV =      1    electr: 0-lowe 1-rand  2-diag
   LASPH  =      F    aspherical Exc in radial PAW
   METAGGA=      F    non-selfconsistent MetaGGA calc.

 Electronic Relaxation 1
   ENCUT  =  500.0 eV  36.75 Ry    6.06 a.u.   5.82  5.82 24.39*2*pi/ulx,y,z
   ENINI  =  500.0     initial cutoff
   ENAUG  =  446.0 eV  augmentation charge cutoff
   NELM   =    100;   NELMIN=  5; NELMDL= -5     # of ELM steps 
   EDIFF  = 0.1E-05   stopping-criterion for ELM
   LREAL  =      F    real-space projection
   NLSPLINE    = F    spline interpolate recip. space projectors
   LCOMPAT=      F    compatible to vasp.4.4
   GGA_COMPAT  = T    GGA compatible to vasp.4.4-vasp.4.6
   LMAXPAW     = -100 max onsite density
   LMAXMIX     =    2 max onsite mixed and CHGCAR
   VOSKOWN=      0    Vosko Wilk Nusair interpolation
   ROPT   =    0.00000   0.00000
 Ionic relaxation
   EDIFFG = 0.1E-04   stopping-criterion for IOM
   NSW    =      0    number of steps for IOM
   NBLOCK =      1;   KBLOCK =      1    inner block; outer block 
   IBRION =     -1    ionic relax: 0-MD 1-quasi-New 2-CG
   NFREE  =      0    steps in history (QN), initial steepest desc. (CG)
   ISIF   =      2    stress and relaxation
   IWAVPR =     10    prediction:  0-non 1-charg 2-wave 3-comb
   ISYM   =      2    0-nonsym 1-usesym 2-fastsym
   LCORR  =      T    Harris-Foulkes like correction to forces

   POTIM  = 0.5000    time-step for ionic-motion
   TEIN   =    0.0    initial temperature
   TEBEG  =    0.0;   TEEND  =   0.0 temperature during run
   SMASS  =  -3.00    Nose mass-parameter (am)
   estimated Nose-frequenzy (Omega)   =  0.10E-29 period in steps = 0.13E+47 mass=  -0.233E-27a.u.
   SCALEE = 1.0000    scale energy and forces
   NPACO  =    256;   APACO  = 16.0  distance and # of slots for P.C.
   PSTRESS=    0.0 pullay stress

  Mass of Ions in am
   POMASS =  95.94 32.07
  Ionic Valenz
   ZVAL   =  14.00  6.00
  Atomic Wigner-Seitz radii
   RWIGS  =  -1.00 -1.00
  virtual crystal weights 
   VCA    =   1.00  1.00
   NELECT =      52.0000    total number of electrons
   NUPDOWN=      -1.0000    fix difference up-down

 DOS related values:
   EMIN   =  10.00;   EMAX   =-10.00  energy-range for DOS
   EFERMI =   0.00
   ISMEAR =     0;   SIGMA  =   0.05  broadening in eV -4-tet -1-fermi 0-gaus

 Electronic relaxation 2 (details)
   IALGO  =     38    algorithm
   LDIAG  =      T    sub-space diagonalisation (order eigenvalues)
   LSUBROT=      F    optimize rotation matrix (better conditioning)
   TURBO    =      0    0=normal 1=particle mesh
   IRESTART =      0    0=no restart 2=restart with 2 vectors
   NREBOOT  =      0    no. of reboots
   NMIN     =      0    reboot dimension
   EREF     =   0.00    reference energy to select bands
   IMIX   =      4    mixing-type and parameters
     AMIX     =   0.40;   BMIX     =  1.00
     AMIX_MAG =   1.60;   BMIX_MAG =  1.00
     AMIN     =   0.10
     WC   =   100.;   INIMIX=   1;  MIXPRE=   1;  MAXMIX= -45

 Intra band minimization:
   WEIMIN = 0.0000     energy-eigenvalue tresh-hold
   EBREAK =  0.78E-08  absolut break condition
   DEPER  =   0.30     relativ break condition  

   TIME   =   0.40     timestep for ELM

  volume/ion in A,a.u.               =      19.68       132.79
  Fermi-wavevector in a.u.,A,eV,Ry     =   1.245571  2.353789 21.108736  1.551448
  Thomas-Fermi vector in A             =   2.379788
 
 Write flags
   LWAVE        =      T    write WAVECAR
   LDOWNSAMPLE  =      F    k-point downsampling of WAVECAR
   LCHARG       =      T    write CHGCAR
   LVTOT        =      F    write LOCPOT, total local potential
   LVHAR        =      F    write LOCPOT, Hartree potential only
   LELF         =      F    write electronic localiz. function (ELF)
   LORBIT       =      0    0 simple, 1 ext, 2 COOP (PROOUT), +10 PAW based schemes


 Dipole corrections
   LMONO  =      F    monopole corrections only (constant potential shift)
   LDIPOL =      F    correct potential (dipole corrections)
   IDIPOL =      0    1-x, 2-y, 3-z, 4-all directions 
   EPSILON=  1.0000000 bulk dielectric constant

 Exchange correlation treatment:
   GGA     =    PE    GGA type
   LEXCH   =     8    internal setting for exchange type
   VOSKOWN=      0    Vosko Wilk Nusair interpolation
   LHFCALC =     F    Hartree Fock is set to
   LHFONE  =     F    Hartree Fock one center treatment
   AEXX    =    0.0000 exact exchange contribution

 Linear response parameters
   LEPSILON=     F    determine dielectric tensor
   LRPA    =     F    only Hartree local field effects (RPA)
   LNABLA  =     F    use nabla operator in PAW spheres
   LVEL    =     F    velocity operator in full k-point grid
   LINTERFAST=   F  fast interpolation
   KINTER  =     0    interpolate to denser k-point grid
   CSHIFT  =0.1000    complex shift for real part using Kramers Kronig
   OMEGAMAX=  -1.0    maximum frequency
   DEG_THRESHOLD= 0.2000000E-02 threshold for treating states as degnerate
   RTIME   =   -0.100 relaxation time in fs
  (WPLASMAI=    0.000 imaginary part of plasma frequency in eV, 0.658/RTIME)
   DFIELD  = 0.0000000 0.0000000 0.0000000 field for delta impulse in time
 
 Orbital magnetization related:
   ORBITALMAG=     F  switch on orbital magnetization
   LCHIMAG   =     F  perturbation theory with respect to B field
   DQ        =  0.001000  dq finite difference perturbation B field
   LLRAUG    =     F  two centre corrections for induced B field



--------------------------------------------------------------------------------------------------------


 Static calculation
 charge density and potential will be updated during run
 non-spin polarized calculation
 Variant of blocked Davidson
 Davidson routine will perform the subspace rotation
 perform sub-space diagonalisation
    after iterative eigenvector-optimisation
 modified Broyden-mixing scheme, WC =      100.0
 initial mixing is a Kerker type mixing with AMIX =  0.4000 and BMIX =      1.0000
 Hartree-type preconditioning will be used
 using additional bands            6
 reciprocal scheme for non local part
 use partial core corrections
 calculate Harris-corrections to forces 
   (improved forces if not selfconsistent)
 use gradient corrections 
 use of overlap-Matrix (Vanderbilt PP)
 Gauss-broadening in eV      SIGMA  =   0.05


--------------------------------------------------------------------------------------------------------


  energy-cutoff  :      500.00
  volume of cell :      118.07
      direct lattice vectors                 reciprocal lattice vectors
     1.596118927 -2.764559076  0.000000000     0.313259865 -0.180860668  0.000000000
     1.596118927  2.764559076  0.000000000     0.313259865  0.180860668  0.000000000
     0.000000000  0.000000000 13.378293991     0.000000000  0.000000000  0.074747946

  length of vectors
     3.192237854  3.192237854 13.378293991     0.361721335  0.361721335  0.074747946


 
 k-points in units of 2pi/SCALE and weight: K-Spacing Value to Generate K-Mesh: 0.15
   0.15662993  0.00000000  0.00000000       0.167
   0.07831497  0.13564550  0.00000000       0.167
   0.23494490 -0.04521517  0.00000000       0.167
   0.00000000  0.09043033  0.00000000       0.167
  -0.07831497  0.04521517  0.00000000       0.167
  -0.07831497 -0.04521517  0.00000000       0.167
 
 k-points in reciprocal lattice and weights: K-Spacing Value to Generate K-Mesh: 0.15
   0.25000000  0.25000000  0.00000000       0.167
  -0.25000000  0.50000000  0.00000000       0.167
   0.50000000  0.25000000  0.00000000       0.167
  -0.25000000  0.25000000  0.00000000       0.167
  -0.25000000  0.00000000  0.00000000       0.167
   0.00000000 -0.25000000  0.00000000       0.167
 
 position of ions in fractional coordinates (direct lattice) 
   0.66666667  0.33333333  0.25000000
   0.33333333  0.66666667  0.75000000
   0.66666667  0.33333333  0.63308200
   0.03189522  0.80805507  0.39864138
   0.66666667  0.33333333  0.86691800
   0.33333333  0.66666667  0.13308200
 
 position of ions in cartesian coordinates  (Angst):
   1.59611893 -0.92151969  3.34457350
   1.59611893  0.92151969 10.03372049
   1.59611893 -0.92151969  8.46955712
   1.34066055  2.14573976  5.33314158
   1.59611893 -0.92151969 11.59788387
   1.59611893  0.92151969  1.78041012
 


--------------------------------------------------------------------------------------------------------


 k-point   1 :   0.2500 0.2500 0.0000  plane waves:    3020
 k-point   2 :  -0.2500 0.5000 0.0000  plane waves:    3020
 k-point   3 :   0.5000 0.2500 0.0000  plane waves:    3020
 k-point   4 :  -0.2500 0.2500 0.0000  plane waves:    2992
 k-point   5 :  -0.2500 0.0000 0.0000  plane waves:    2992
 k-point   6 :   0.0000-0.2500 0.0000  plane waves:    2992

 maximum and minimum number of plane-waves per node :       767      745

 maximum number of plane-waves:      3020
 maximum index in each direction: 
   IXMAX=    6   IYMAX=    6   IZMAX=   24
   IXMIN=   -6   IYMIN=   -6   IZMIN=  -24


 parallel 3D FFT for wavefunctions:
    minimum data exchange during FFTs selected (reduces bandwidth)
 parallel 3D FFT for charge:
    minimum data exchange during FFTs selected (reduces bandwidth)


 total amount of memory used by VASP MPI-rank0    38677. kBytes
=======================================================================

   base      :      30000. kBytes
   nonl-proj :       1371. kBytes
   fftplans  :       2330. kBytes
   grid      :       3750. kBytes
   one-center:         31. kBytes
   wavefun   :       1195. kBytes
 
     INWAV:  cpu time    0.0000: real time    0.0001
 Broyden mixing: mesh for mixing (old mesh)
   NGX = 11   NGY = 11   NGZ = 49
  (NGX  = 48   NGY  = 48   NGZ  =196)
  gives a total of   5929 points

 initial charge density was supplied:
 charge density of overlapping atoms calculated
 number of electron      52.0000000 magnetization 
 keeping initial charge density in first step


--------------------------------------------------------------------------------------------------------


 Maximum index for augmentation-charges         2591 (set IRDMAX)


--------------------------------------------------------------------------------------------------------


 First call to EWALD:  gamma=   0.361
 Maximum number of real-space cells 4x 4x 1
 Maximum number of reciprocal cells 2x 2x 7

    FEWALD:  cpu time    0.0020: real time    0.0020


--------------------------------------- Iteration      1(   1)  ---------------------------------------


    POTLOK:  cpu time    0.0561: real time    0.0574
    SETDIJ:  cpu time    0.0055: real time    0.0055
     EDDAV:  cpu time    0.3914: real time    0.3916
       DOS:  cpu time    0.0007: real time    0.0007
    --------------------------------------------
      LOOP:  cpu time    0.4537: real time    0.4552

 eigenvalue-minimisations  :   432
 total energy-change (2. order) : 0.4196384E+03  (-0.2915988E+04)
 number of electron      52.0000000 magnetization 
 augmentation part       52.0000000 magnetization 

 Free energy of the ion-electron system (eV)
  ---------------------------------------------------
  alpha Z        PSCENC =       160.27286088
  Ewald energy   TEWEN  =     -2988.74606627
  -Hartree energ DENC   =     -1764.38198040
  -exchange      EXHF   =         0.00000000
  -V(xc)+E(xc)   XCENC  =       181.95266703
  PAW double counting   =      3865.57804258    -3815.84821480
  entropy T*S    EENTRO =        -0.00029229
  eigenvalues    EBANDS =       -51.03125244
  atomic energy  EATOM  =      4831.84262874
  Solvation  Ediel_sol  =         0.00000000
  ---------------------------------------------------
  free energy    TOTEN  =       419.63839302 eV

  energy without entropy =      419.63868531  energy(sigma->0) =      419.63853916


--------------------------------------------------------------------------------------------------------




--------------------------------------- Iteration      1(   2)  ---------------------------------------


     EDDAV:  cpu time    0.4067: real time    0.4096
       DOS:  cpu time    0.0007: real time    0.0006
    --------------------------------------------
      LOOP:  cpu time    0.4074: real time    0.4102

 eigenvalue-minimisations  :   464
 total energy-change (2. order) :-0.4422223E+03  (-0.4313520E+03)
 number of electron      52.0000000 magnetization 
 augmentation part       52.0000000 magnetization 

 Free energy of the ion-electron system (eV)
  ---------------------------------------------------
  alpha Z        PSCENC =       160.27286088
  Ewald energy   TEWEN  =     -2988.74606627
  -Hartree energ DENC   =     -1764.38198040
  -exchange      EXHF   =         0.00000000
  -V(xc)+E(xc)   XCENC  =       181.95266703
  PAW double counting   =      3865.57804258    -3815.84821480
  entropy T*S    EENTRO =        -0.00260957
  eigenvalues    EBANDS =      -493.25122551
  atomic energy  EATOM  =      4831.84262874
  Solvation  Ediel_sol  =         0.00000000
  ---------------------------------------------------
  free energy    TOTEN  =       -22.58389732 eV

  energy without entropy =      -22.58128776  energy(sigma->0) =      -22.58259254


--------------------------------------------------------------------------------------------------------




--------------------------------------- Iteration      1(   3)  ---------------------------------------


     EDDAV:  cpu time    0.4233: real time    0.4273
       DOS:  cpu time    0.0006: real time    0.0006
    --------------------------------------------
      LOOP:  cpu time    0.4239: real time    0.4279

 eigenvalue-minimisations  :   480
 total energy-change (2. order) :-0.2230227E+02  (-0.2205447E+02)
 number of electron      52.0000000 magnetization 
 augmentation part       52.0000000 magnetization 

 Free energy of the ion-electron system (eV)
  ---------------------------------------------------
  alpha Z        PSCENC =       160.27286088
  Ewald energy   TEWEN  =     -2988.74606627
  -Hartree energ DENC   =     -1764.38198040
  -exchange      EXHF   =         0.00000000
  -V(xc)+E(xc)   XCENC  =       181.95266703
  PAW double counting   =      3865.57804258    -3815.84821480
  entropy T*S    EENTRO =        -0.00001235
  eigenvalues    EBANDS =      -515.55609477
  atomic energy  EATOM  =      4831.84262874
  Solvation  Ediel_sol  =         0.00000000
  ---------------------------------------------------
  free energy    TOTEN  =       -44.88616937 eV

  energy without entropy =      -44.88615702  energy(sigma->0) =      -44.88616319


--------------------------------------------------------------------------------------------------------




--------------------------------------- Iteration      1(   4)  ---------------------------------------


     EDDAV:  cpu time    0.4194: real time    0.4222
       DOS:  cpu time    0.0005: real time    0.0005
    --------------------------------------------
      LOOP:  cpu time    0.4199: real time    0.4227

 eigenvalue-minimisations  :   480
 total energy-change (2. order) :-0.5355571E+00  (-0.5337441E+00)
 number of electron      52.0000000 magnetization 
 augmentation part       52.0000000 magnetization 

 Free energy of the ion-electron system (eV)
  ---------------------------------------------------
  alpha Z        PSCENC =       160.27286088
  Ewald energy   TEWEN  =     -2988.74606627
  -Hartree energ DENC   =     -1764.38198040
  -exchange      EXHF   =         0.00000000
  -V(xc)+E(xc)   XCENC  =       181.95266703
  PAW double counting   =      3865.57804258    -3815.84821480
  entropy T*S    EENTRO =        -0.00000186
  eigenvalues    EBANDS =      -516.09166239
  atomic energy  EATOM  =      4831.84262874
  Solvation  Ediel_sol  =         0.00000000
  ---------------------------------------------------
  free energy    TOTEN  =       -45.42172650 eV

  energy without entropy =      -45.42172464  energy(sigma->0) =      -45.42172557


--------------------------------------------------------------------------------------------------------




--------------------------------------- Iteration      1(   5)  ---------------------------------------


     EDDAV:  cpu time    0.4309: real time    0.4348
       DOS:  cpu time    0.0005: real time    0.0005
    CHARGE:  cpu time    0.0371: real time    0.0371
    MIXING:  cpu time    0.0014: real time    0.0014
    --------------------------------------------
      LOOP:  cpu time    0.4700: real time    0.4739

 eigenvalue-minimisations  :   496
 total energy-change (2. order) :-0.1434674E-01  (-0.1434322E-01)
 number of electron      51.9999991 magnetization 
 augmentation part        0.6459497 magnetization 

 Broyden mixing:
  rms(total) = 0.29934E+01    rms(broyden)= 0.29934E+01
  rms(prec ) = 0.31313E+01
  weight for this iteration     100.00

 Free energy of the ion-electron system (eV)
  ---------------------------------------------------
  alpha Z        PSCENC =       160.27286088
  Ewald energy   TEWEN  =     -2988.74606627
  -Hartree energ DENC   =     -1764.38198040
  -exchange      EXHF   =         0.00000000
  -V(xc)+E(xc)   XCENC  =       181.95266703
  PAW double counting   =      3865.57804258    -3815.84821480
  entropy T*S    EENTRO =        -0.00000183
  eigenvalues    EBANDS =      -516.10600917
  atomic energy  EATOM  =      4831.84262874
  Solvation  Ediel_sol  =         0.00000000
  ---------------------------------------------------
  free energy    TOTEN  =       -45.43607324 eV

  energy without entropy =      -45.43607141  energy(sigma->0) =      -45.43607233


--------------------------------------------------------------------------------------------------------




--------------------------------------- Iteration      1(   6)  ---------------------------------------


    POTLOK:  cpu time    0.0557: real time    0.0599
    SETDIJ:  cpu time    0.0054: real time    0.0054
     EDDAV:  cpu time    0.3812: real time    0.3813
       DOS:  cpu time    0.0002: real time    0.0002
    CHARGE:  cpu time    0.0361: real time    0.0361
    MIXING:  cpu time    0.0014: real time    0.0014
    --------------------------------------------
      LOOP:  cpu time    0.4801: real time    0.4844

 eigenvalue-minimisations  :   424
 total energy-change (2. order) : 0.7283653E+00  (-0.3409717E+01)
 number of electron      51.9999988 magnetization 
 augmentation part        2.2735313 magnetization 

 Broyden mixing:
  rms(total) = 0.14834E+01    rms(broyden)= 0.14834E+01
  rms(prec ) = 0.18648E+01
  weight for this iteration     100.00

 eigenvalues of (default mixing * dielectric matrix)
  average eigenvalue GAMMA=   0.9620
  0.9620

 Free energy of the ion-electron system (eV)
  ---------------------------------------------------
  alpha Z        PSCENC =       160.27286088
  Ewald energy   TEWEN  =     -2988.74606627
  -Hartree energ DENC   =     -1698.21756777
  -exchange      EXHF   =         0.00000000
  -V(xc)+E(xc)   XCENC  =       180.18990593
  PAW double counting   =      4450.40460158    -4407.71136217
  entropy T*S    EENTRO =        -0.00000000
  eigenvalues    EBANDS =      -572.74270886
  atomic energy  EATOM  =      4831.84262874
  Solvation  Ediel_sol  =         0.00000000
  ---------------------------------------------------
  free energy    TOTEN  =       -44.70770795 eV

  energy without entropy =      -44.70770795  energy(sigma->0) =      -44.70770795


--------------------------------------------------------------------------------------------------------




--------------------------------------- Iteration      1(   7)  ---------------------------------------


    POTLOK:  cpu time    0.0551: real time    0.0586
    SETDIJ:  cpu time    0.0054: real time    0.0054
     EDDAV:  cpu time    0.4200: real time    0.4205
       DOS:  cpu time    0.0005: real time    0.0005
    CHARGE:  cpu time    0.0360: real time    0.0361
    MIXING:  cpu time    0.0014: real time    0.0014
    --------------------------------------------
      LOOP:  cpu time    0.5185: real time    0.5225

 eigenvalue-minimisations  :   480
 total energy-change (2. order) : 0.8766255E+00  (-0.3551681E+01)
 number of electron      51.9999990 magnetization 
 augmentation part        1.1223720 magnetization 

 Broyden mixing:
  rms(total) = 0.96018E+00    rms(broyden)= 0.96017E+00
  rms(prec ) = 0.12820E+01
  weight for this iteration     100.00

 eigenvalues of (default mixing * dielectric matrix)
  average eigenvalue GAMMA=   1.0081
  1.5281  0.4881

 Free energy of the ion-electron system (eV)
  ---------------------------------------------------
  alpha Z        PSCENC =       160.27286088
  Ewald energy   TEWEN  =     -2988.74606627
  -Hartree energ DENC   =     -1748.38584157
  -exchange      EXHF   =         0.00000000
  -V(xc)+E(xc)   XCENC  =       181.03673584
  PAW double counting   =      4909.65792449    -4864.27076254
  entropy T*S    EENTRO =        -0.00000008
  eigenvalues    EBANDS =      -525.23856194
  atomic energy  EATOM  =      4831.84262874
  Solvation  Ediel_sol  =         0.00000000
  ---------------------------------------------------
  free energy    TOTEN  =       -43.83108245 eV

  energy without entropy =      -43.83108238  energy(sigma->0) =      -43.83108242


--------------------------------------------------------------------------------------------------------




--------------------------------------- Iteration      1(   8)  ---------------------------------------


    POTLOK:  cpu time    0.0549: real time    0.0583
    SETDIJ:  cpu time    0.0053: real time    0.0053
     EDDAV:  cpu time    0.4404: real time    0.4405
       DOS:  cpu time    0.0006: real time    0.0006
    CHARGE:  cpu time    0.0361: real time    0.0361
    MIXING:  cpu time    0.0014: real time    0.0014
    --------------------------------------------
      LOOP:  cpu time    0.5387: real time    0.5422

 eigenvalue-minimisations  :   512
 total energy-change (2. order) : 0.1482492E+01  (-0.6007957E+00)
 number of electron      51.9999989 magnetization 
 augmentation part        1.4674540 magnetization 

 Broyden mixing:
  rms(total) = 0.43685E+00    rms(broyden)= 0.43685E+00
  rms(prec ) = 0.46527E+00
  weight for this iteration     100.00

 eigenvalues of (default mixing * dielectric matrix)
  average eigenvalue GAMMA=   1.0724
  2.0588  0.7168  0.4416

 Free energy of the ion-electron system (eV)
  ---------------------------------------------------
  alpha Z        PSCENC =       160.27286088
  Ewald energy   TEWEN  =     -2988.74606627
  -Hartree energ DENC   =     -1730.87409016
  -exchange      EXHF   =         0.00000000
  -V(xc)+E(xc)   XCENC  =       180.66014830
  PAW double counting   =      5295.36403588    -5251.92082548
  entropy T*S    EENTRO =        -0.00002255
  eigenvalues    EBANDS =      -538.94725976
  atomic energy  EATOM  =      4831.84262874
  Solvation  Ediel_sol  =         0.00000000
  ---------------------------------------------------
  free energy    TOTEN  =       -42.34859042 eV

  energy without entropy =      -42.34856787  energy(sigma->0) =      -42.34857914


--------------------------------------------------------------------------------------------------------




--------------------------------------- Iteration      1(   9)  ---------------------------------------


    POTLOK:  cpu time    0.0550: real time    0.0590
    SETDIJ:  cpu time    0.0054: real time    0.0054
     EDDAV:  cpu time    0.3878: real time    0.3882
       DOS:  cpu time    0.0007: real time    0.0007
    CHARGE:  cpu time    0.0364: real time    0.0364
    MIXING:  cpu time    0.0015: real time    0.0015
    --------------------------------------------
      LOOP:  cpu time    0.4868: real time    0.4913

 eigenvalue-minimisations  :   424
 total energy-change (2. order) : 0.6019564E-01  (-0.6540838E-01)
 number of electron      51.9999989 magnetization 
 augmentation part        1.5765150 magnetization 

 Broyden mixing:
  rms(total) = 0.12167E+00    rms(broyden)= 0.12167E+00
  rms(prec ) = 0.13390E+00
  weight for this iteration     100.00

 eigenvalues of (default mixing * dielectric matrix)
  average eigenvalue GAMMA=   1.0540
  2.2220  0.9706  0.5364  0.4871

 Free energy of the ion-electron system (eV)
  ---------------------------------------------------
  alpha Z        PSCENC =       160.27286088
  Ewald energy   TEWEN  =     -2988.74606627
  -Hartree energ DENC   =     -1725.38115109
  -exchange      EXHF   =         0.00000000
  -V(xc)+E(xc)   XCENC  =       180.47855483
  PAW double counting   =      5555.91633642    -5513.40561476
  entropy T*S    EENTRO =        -0.00011179
  eigenvalues    EBANDS =      -543.26583174
  atomic energy  EATOM  =      4831.84262874
  Solvation  Ediel_sol  =         0.00000000
  ---------------------------------------------------
  free energy    TOTEN  =       -42.28839478 eV

  energy without entropy =      -42.28828299  energy(sigma->0) =      -42.28833888


--------------------------------------------------------------------------------------------------------




--------------------------------------- Iteration      1(  10)  ---------------------------------------


    POTLOK:  cpu time    0.0574: real time    0.0585
    SETDIJ:  cpu time    0.0054: real time    0.0054
     EDDAV:  cpu time    0.4195: real time    0.4196
       DOS:  cpu time    0.0006: real time    0.0006
    CHARGE:  cpu time    0.0361: real time    0.0361
    MIXING:  cpu time    0.0015: real time    0.0015
    --------------------------------------------
      LOOP:  cpu time    0.5205: real time    0.5217

 eigenvalue-minimisations  :   480
 total energy-change (2. order) : 0.6682459E-02  (-0.5470884E-02)
 number of electron      51.9999989 magnetization 
 augmentation part        1.5788563 magnetization 

 Broyden mixing:
  rms(total) = 0.65074E-01    rms(broyden)= 0.65074E-01
  rms(prec ) = 0.75136E-01
  weight for this iteration     100.00

 eigenvalues of (default mixing * dielectric matrix)
  average eigenvalue GAMMA=   1.0913
  2.0465  1.5137  0.8032  0.4591  0.6340

 Free energy of the ion-electron system (eV)
  ---------------------------------------------------
  alpha Z        PSCENC =       160.27286088
  Ewald energy   TEWEN  =     -2988.74606627
  -Hartree energ DENC   =     -1726.05469169
  -exchange      EXHF   =         0.00000000
  -V(xc)+E(xc)   XCENC  =       180.48570281
  PAW double counting   =      5606.79095522    -5564.37836747
  entropy T*S    EENTRO =        -0.00011497
  eigenvalues    EBANDS =      -542.49461957
  atomic energy  EATOM  =      4831.84262874
  Solvation  Ediel_sol  =         0.00000000
  ---------------------------------------------------
  free energy    TOTEN  =       -42.28171232 eV

  energy without entropy =      -42.28159735  energy(sigma->0) =      -42.28165483


--------------------------------------------------------------------------------------------------------




--------------------------------------- Iteration      1(  11)  ---------------------------------------


    POTLOK:  cpu time    0.0549: real time    0.0583
    SETDIJ:  cpu time    0.0054: real time    0.0054
     EDDAV:  cpu time    0.4259: real time    0.4260
       DOS:  cpu time    0.0006: real time    0.0006
    CHARGE:  cpu time    0.0360: real time    0.0360
    MIXING:  cpu time    0.0016: real time    0.0016
    --------------------------------------------
      LOOP:  cpu time    0.5245: real time    0.5279

 eigenvalue-minimisations  :   488
 total energy-change (2. order) : 0.2095661E-02  (-0.1987296E-02)
 number of electron      51.9999989 magnetization 
 augmentation part        1.5515988 magnetization 

 Broyden mixing:
  rms(total) = 0.28775E-01    rms(broyden)= 0.28775E-01
  rms(prec ) = 0.31509E-01
  weight for this iteration     100.00

 eigenvalues of (default mixing * dielectric matrix)
  average eigenvalue GAMMA=   1.1620
  2.1325  2.1325  0.9162  0.4588  0.6659  0.6659

 Free energy of the ion-electron system (eV)
  ---------------------------------------------------
  alpha Z        PSCENC =       160.27286088
  Ewald energy   TEWEN  =     -2988.74606627
  -Hartree energ DENC   =     -1727.32394567
  -exchange      EXHF   =         0.00000000
  -V(xc)+E(xc)   XCENC  =       180.52338187
  PAW double counting   =      5590.16719268    -5547.66399599
  entropy T*S    EENTRO =        -0.00027097
  eigenvalues    EBANDS =      -541.35140192
  atomic energy  EATOM  =      4831.84262874
  Solvation  Ediel_sol  =         0.00000000
  ---------------------------------------------------
  free energy    TOTEN  =       -42.27961666 eV

  energy without entropy =      -42.27934569  energy(sigma->0) =      -42.27948117


--------------------------------------------------------------------------------------------------------




--------------------------------------- Iteration      1(  12)  ---------------------------------------


    POTLOK:  cpu time    0.0551: real time    0.0586
    SETDIJ:  cpu time    0.0054: real time    0.0054
     EDDAV:  cpu time    0.4195: real time    0.4196
       DOS:  cpu time    0.0007: real time    0.0006
    CHARGE:  cpu time    0.0360: real time    0.0360
    MIXING:  cpu time    0.0016: real time    0.0016
    --------------------------------------------
      LOOP:  cpu time    0.5182: real time    0.5218

 eigenvalue-minimisations  :   480
 total energy-change (2. order) :-0.5284996E-04  (-0.3223274E-03)
 number of electron      51.9999989 magnetization 
 augmentation part        1.5572083 magnetization 

 Broyden mixing:
  rms(total) = 0.13886E-01    rms(broyden)= 0.13885E-01
  rms(prec ) = 0.15708E-01
  weight for this iteration     100.00

 eigenvalues of (default mixing * dielectric matrix)
  average eigenvalue GAMMA=   1.1632
  2.1137  2.1137  1.0046  1.0046  0.4576  0.6281  0.8201

 Free energy of the ion-electron system (eV)
  ---------------------------------------------------
  alpha Z        PSCENC =       160.27286088
  Ewald energy   TEWEN  =     -2988.74606627
  -Hartree energ DENC   =     -1727.42891311
  -exchange      EXHF   =         0.00000000
  -V(xc)+E(xc)   XCENC  =       180.53107535
  PAW double counting   =      5595.36617846    -5552.88706956
  entropy T*S    EENTRO =        -0.00022953
  eigenvalues    EBANDS =      -541.23013447
  atomic energy  EATOM  =      4831.84262874
  Solvation  Ediel_sol  =         0.00000000
  ---------------------------------------------------
  free energy    TOTEN  =       -42.27966951 eV

  energy without entropy =      -42.27943997  energy(sigma->0) =      -42.27955474


--------------------------------------------------------------------------------------------------------




--------------------------------------- Iteration      1(  13)  ---------------------------------------


    POTLOK:  cpu time    0.0549: real time    0.0580
    SETDIJ:  cpu time    0.0054: real time    0.0054
     EDDAV:  cpu time    0.4318: real time    0.4319
       DOS:  cpu time    0.0006: real time    0.0006
    CHARGE:  cpu time    0.0360: real time    0.0360
    MIXING:  cpu time    0.0016: real time    0.0016
    --------------------------------------------
      LOOP:  cpu time    0.5303: real time    0.5334

 eigenvalue-minimisations  :   496
 total energy-change (2. order) :-0.7097215E-06  (-0.8055035E-04)
 number of electron      51.9999989 magnetization 
 augmentation part        1.5542443 magnetization 

 Broyden mixing:
  rms(total) = 0.91930E-02    rms(broyden)= 0.91930E-02
  rms(prec ) = 0.10045E-01
  weight for this iteration     100.00

 eigenvalues of (default mixing * dielectric matrix)
  average eigenvalue GAMMA=   1.1475
  2.2305  2.2305  1.1094  1.1094  0.4575  0.8076  0.6176  0.6176

 Free energy of the ion-electron system (eV)
  ---------------------------------------------------
  alpha Z        PSCENC =       160.27286088
  Ewald energy   TEWEN  =     -2988.74606627
  -Hartree energ DENC   =     -1727.61921387
  -exchange      EXHF   =         0.00000000
  -V(xc)+E(xc)   XCENC  =       180.53691134
  PAW double counting   =      5592.54285436    -5550.05187750
  entropy T*S    EENTRO =        -0.00025914
  eigenvalues    EBANDS =      -541.05750875
  atomic energy  EATOM  =      4831.84262874
  Solvation  Ediel_sol  =         0.00000000
  ---------------------------------------------------
  free energy    TOTEN  =       -42.27967022 eV

  energy without entropy =      -42.27941108  energy(sigma->0) =      -42.27954065


--------------------------------------------------------------------------------------------------------




--------------------------------------- Iteration      1(  14)  ---------------------------------------


    POTLOK:  cpu time    0.0551: real time    0.0589
    SETDIJ:  cpu time    0.0054: real time    0.0054
     EDDAV:  cpu time    0.3965: real time    0.3966
       DOS:  cpu time    0.0006: real time    0.0006
    CHARGE:  cpu time    0.0360: real time    0.0361
    MIXING:  cpu time    0.0019: real time    0.0019
    --------------------------------------------
      LOOP:  cpu time    0.4955: real time    0.4994

 eigenvalue-minimisations  :   448
 total energy-change (2. order) :-0.1731070E-04  (-0.1396875E-04)
 number of electron      51.9999989 magnetization 
 augmentation part        1.5552838 magnetization 

 Broyden mixing:
  rms(total) = 0.56700E-02    rms(broyden)= 0.56700E-02
  rms(prec ) = 0.60538E-02
  weight for this iteration     100.00

 eigenvalues of (default mixing * dielectric matrix)
  average eigenvalue GAMMA=   1.2417
  2.4106  2.4106  1.4497  1.4497  0.4573  0.8945  0.6368  0.7328  0.7328

 Free energy of the ion-electron system (eV)
  ---------------------------------------------------
  alpha Z        PSCENC =       160.27286088
  Ewald energy   TEWEN  =     -2988.74606627
  -Hartree energ DENC   =     -1727.67818035
  -exchange      EXHF   =         0.00000000
  -V(xc)+E(xc)   XCENC  =       180.53957382
  PAW double counting   =      5592.07856440    -5549.58825958
  entropy T*S    EENTRO =        -0.00024746
  eigenvalues    EBANDS =      -541.00056171
  atomic energy  EATOM  =      4831.84262874
  Solvation  Ediel_sol  =         0.00000000
  ---------------------------------------------------
  free energy    TOTEN  =       -42.27968753 eV

  energy without entropy =      -42.27944007  energy(sigma->0) =      -42.27956380


--------------------------------------------------------------------------------------------------------




--------------------------------------- Iteration      1(  15)  ---------------------------------------


    POTLOK:  cpu time    0.0549: real time    0.0576
    SETDIJ:  cpu time    0.0054: real time    0.0054
     EDDAV:  cpu time    0.4584: real time    0.4585
       DOS:  cpu time    0.0006: real time    0.0006
    CHARGE:  cpu time    0.0361: real time    0.0361
    MIXING:  cpu time    0.0017: real time    0.0017
    --------------------------------------------
      LOOP:  cpu time    0.5571: real time    0.5599

 eigenvalue-minimisations  :   536
 total energy-change (2. order) :-0.1580740E-04  (-0.6884815E-05)
 number of electron      51.9999989 magnetization 
 augmentation part        1.5557272 magnetization 

 Broyden mixing:
  rms(total) = 0.12889E-02    rms(broyden)= 0.12888E-02
  rms(prec ) = 0.13694E-02
  weight for this iteration     100.00

 eigenvalues of (default mixing * dielectric matrix)
  average eigenvalue GAMMA=   1.2614
  2.6460  2.3025  1.7694  1.2088  1.2088  0.4573  0.9167  0.6427  0.7312  0.7312

 Free energy of the ion-electron system (eV)
  ---------------------------------------------------
  alpha Z        PSCENC =       160.27286088
  Ewald energy   TEWEN  =     -2988.74606627
  -Hartree energ DENC   =     -1727.71904822
  -exchange      EXHF   =         0.00000000
  -V(xc)+E(xc)   XCENC  =       180.54176933
  PAW double counting   =      5591.14395384    -5548.65262207
  entropy T*S    EENTRO =        -0.00025061
  eigenvalues    EBANDS =      -540.96292894
  atomic energy  EATOM  =      4831.84262874
  Solvation  Ediel_sol  =         0.00000000
  ---------------------------------------------------
  free energy    TOTEN  =       -42.27970333 eV

  energy without entropy =      -42.27945272  energy(sigma->0) =      -42.27957803


--------------------------------------------------------------------------------------------------------




--------------------------------------- Iteration      1(  16)  ---------------------------------------


    POTLOK:  cpu time    0.0551: real time    0.0587
    SETDIJ:  cpu time    0.0054: real time    0.0054
     EDDAV:  cpu time    0.3744: real time    0.3745
       DOS:  cpu time    0.0006: real time    0.0006
    CHARGE:  cpu time    0.0364: real time    0.0364
    MIXING:  cpu time    0.0018: real time    0.0018
    --------------------------------------------
      LOOP:  cpu time    0.4737: real time    0.4774

 eigenvalue-minimisations  :   408
 total energy-change (2. order) :-0.4240750E-05  (-0.9285466E-06)
 number of electron      51.9999989 magnetization 
 augmentation part        1.5560613 magnetization 

 Broyden mixing:
  rms(total) = 0.65234E-03    rms(broyden)= 0.65234E-03
  rms(prec ) = 0.71473E-03
  weight for this iteration     100.00

 eigenvalues of (default mixing * dielectric matrix)
  average eigenvalue GAMMA=   1.2714
  2.6527  2.0675  2.0675  1.5926  1.2425  0.4573  0.9937  0.7809  0.7809  0.6494
  0.7003

 Free energy of the ion-electron system (eV)
  ---------------------------------------------------
  alpha Z        PSCENC =       160.27286088
  Ewald energy   TEWEN  =     -2988.74606627
  -Hartree energ DENC   =     -1727.72421765
  -exchange      EXHF   =         0.00000000
  -V(xc)+E(xc)   XCENC  =       180.54229831
  PAW double counting   =      5591.31740460    -5548.82636233
  entropy T*S    EENTRO =        -0.00024925
  eigenvalues    EBANDS =      -540.95800460
  atomic energy  EATOM  =      4831.84262874
  Solvation  Ediel_sol  =         0.00000000
  ---------------------------------------------------
  free energy    TOTEN  =       -42.27970757 eV

  energy without entropy =      -42.27945832  energy(sigma->0) =      -42.27958295


--------------------------------------------------------------------------------------------------------




--------------------------------------- Iteration      1(  17)  ---------------------------------------


    POTLOK:  cpu time    0.0549: real time    0.0577
    SETDIJ:  cpu time    0.0054: real time    0.0054
     EDDAV:  cpu time    0.3334: real time    0.3336
       DOS:  cpu time    0.0007: real time    0.0007
    --------------------------------------------
      LOOP:  cpu time    0.3944: real time    0.3973

 eigenvalue-minimisations  :   328
 total energy-change (2. order) :-0.2603592E-06  (-0.1110531E-06)
 number of electron      51.9999989 magnetization 
 augmentation part        1.5560613 magnetization 

 Free energy of the ion-electron system (eV)
  ---------------------------------------------------
  alpha Z        PSCENC =       160.27286088
  Ewald energy   TEWEN  =     -2988.74606627
  -Hartree energ DENC   =     -1727.72523437
  -exchange      EXHF   =         0.00000000
  -V(xc)+E(xc)   XCENC  =       180.54238952
  PAW double counting   =      5591.53948141    -5549.04832297
  entropy T*S    EENTRO =        -0.00025014
  eigenvalues    EBANDS =      -540.95719462
  atomic energy  EATOM  =      4831.84262874
  Solvation  Ediel_sol  =         0.00000000
  ---------------------------------------------------
  free energy    TOTEN  =       -42.27970784 eV

  energy without entropy =      -42.27945769  energy(sigma->0) =      -42.27958276


--------------------------------------------------------------------------------------------------------




 average (electrostatic) potential at core
  the test charge radii are     1.0818  0.9698
  (the norm of the test charge is              1.0000)
       1 -75.9287       2 -75.9106       3 -85.6312       4 -85.6358       5 -85.6261
       6 -85.7320
 
 
 
 E-fermi :   6.2567     XC(G=0): -10.2825     alpha+bet :-12.2268

 Fermi energy:         6.2566988221

 k-point     1 :       0.2500    0.2500    0.0000
  band No.  band energies     occupation 
      1     -55.1197      2.00000
      2     -55.1196      2.00000
      3     -29.3726      2.00000
      4     -29.3572      2.00000
      5     -29.2775      2.00000
      6     -29.2692      2.00000
      7     -29.2156      2.00000
      8     -29.0814      2.00000
      9      -6.5568      2.00000
     10      -6.4845      2.00000
     11      -6.3226      2.00000
     12      -5.7656      2.00000
     13       0.6103      2.00000
     14       0.7818      2.00000
     15       0.8362      2.00000
     16       1.7528      2.00000
     17       2.0356      2.00000
     18       2.1108      2.00000
     19       2.5582      2.00000
     20       2.7096      2.00000
     21       2.8232      2.00000
     22       3.3060      2.00000
     23       3.4631      2.00000
     24       4.0635      2.00000
     25       5.2206      2.00000
     26       5.9508      2.00000
     27       6.6093      0.00000
     28       7.8026      0.00000
     29       8.1663      0.00000
     30       8.4242      0.00000
     31       8.6258      0.00000
     32       8.7850      0.00000

 k-point     2 :      -0.2500    0.5000    0.0000
  band No.  band energies     occupation 
      1     -55.1198      2.00000
      2     -55.1196      2.00000
      3     -29.3754      2.00000
      4     -29.3564      2.00000
      5     -29.2692      2.00000
      6     -29.2574      2.00000
      7     -29.2164      2.00000
      8     -29.0969      2.00000
      9      -6.5600      2.00000
     10      -6.4708      2.00000
     11      -6.3271      2.00000
     12      -5.7552      2.00000
     13       0.6170      2.00000
     14       0.7946      2.00000
     15       0.8574      2.00000
     16       1.7125      2.00000
     17       2.0302      2.00000
     18       2.1334      2.00000
     19       2.4860      2.00000
     20       2.6948      2.00000
     21       2.8377      2.00000
     22       3.0929      2.00000
     23       3.7806      2.00000
     24       4.0510      2.00000
     25       5.2210      2.00000
     26       5.8424      2.00000
     27       6.6965      0.00000
     28       7.8075      0.00000
     29       8.1540      0.00000
     30       8.4796      0.00000
     31       8.6789      0.00000
     32       8.7813      0.00000

 k-point     3 :       0.5000    0.2500    0.0000
  band No.  band energies     occupation 
      1     -55.1200      2.00000
      2     -55.1196      2.00000
      3     -29.3571      2.00000
      4     -29.3429      2.00000
      5     -29.2692      2.00000
      6     -29.2157      2.00000
      7     -29.2147      2.00000
      8     -29.1719      2.00000
      9      -6.5618      2.00000
     10      -6.4689      2.00000
     11      -6.3293      2.00000
     12      -5.7481      2.00000
     13       0.6172      2.00000
     14       0.8144      2.00000
     15       0.8973      2.00000
     16       1.7058      2.00000
     17       1.9837      2.00000
     18       2.1123      2.00000
     19       2.5019      2.00000
     20       2.6692      2.00000
     21       2.8297      2.00000
     22       3.0309      2.00000
     23       3.8289      2.00000
     24       4.0475      2.00000
     25       5.2197      2.00000
     26       6.0123      2.00000
     27       6.5727      0.00000
     28       7.8027      0.00000
     29       8.1562      0.00000
     30       8.5310      0.00000
     31       8.7494      0.00000
     32       8.8431      0.00000

 k-point     4 :      -0.2500    0.2500    0.0000
  band No.  band energies     occupation 
      1     -55.1375      2.00000
      2     -55.1369      2.00000
      3     -29.3638      2.00000
      4     -29.3050      2.00000
      5     -29.2460      2.00000
      6     -29.1443      2.00000
      7     -29.1067      2.00000
      8     -29.0465      2.00000
      9      -7.5655      2.00000
     10      -7.2685      2.00000
     11      -6.7936      2.00000
     12      -6.4593      2.00000
     13       0.6245      2.00000
     14       1.2516      2.00000
     15       1.8140      2.00000
     16       1.9783      2.00000
     17       2.1786      2.00000
     18       3.1203      2.00000
     19       3.2239      2.00000
     20       3.2961      2.00000
     21       3.7787      2.00000
     22       3.9332      2.00000
     23       4.5802      2.00000
     24       4.7830      2.00000
     25       5.0472      2.00000
     26       5.7480      2.00000
     27       6.3519      0.00708
     28       7.1885      0.00000
     29       7.9185      0.00000
     30       8.0567      0.00000
     31       8.5304      0.00000
     32       8.8922      0.00000

 k-point     5 :      -0.2500    0.0000    0.0000
  band No.  band energies     occupation 
      1     -55.1375      2.00000
      2     -55.1367      2.00000
      3     -29.3580      2.00000
      4     -29.3050      2.00000
      5     -29.2467      2.00000
      6     -29.1758      2.00000
      7     -29.1060      2.00000
      8     -29.0229      2.00000
      9      -7.5624      2.00000
     10      -7.2372      2.00000
     11      -6.7945      2.00000
     12      -6.5086      2.00000
     13       0.6427      2.00000
     14       1.3575      2.00000
     15       1.7789      2.00000
     16       1.9608      2.00000
     17       2.1608      2.00000
     18       2.7973      2.00000
     19       3.2223      2.00000
     20       3.3569      2.00000
     21       3.8694      2.00000
     22       3.9381      2.00000
     23       4.3866      2.00000
     24       4.7990      2.00000
     25       5.0010      2.00000
     26       6.1615      1.99292
     27       6.6464      0.00000
     28       7.1587      0.00000
     29       7.9912      0.00000
     30       8.0533      0.00000
     31       8.5151      0.00000
     32       8.8353      0.00000

 k-point     6 :       0.0000   -0.2500    0.0000
  band No.  band energies     occupation 
      1     -55.1375      2.00000
      2     -55.1366      2.00000
      3     -29.3664      2.00000
      4     -29.3050      2.00000
      5     -29.2460      2.00000
      6     -29.2187      2.00000
      7     -29.1067      2.00000
      8     -28.9718      2.00000
      9      -7.5615      2.00000
     10      -7.2231      2.00000
     11      -6.7956      2.00000
     12      -6.5279      2.00000
     13       0.6513      2.00000
     14       1.3680      2.00000
     15       1.7069      2.00000
     16       1.9827      2.00000
     17       2.1467      2.00000
     18       2.7641      2.00000
     19       3.2241      2.00000
     20       3.5459      2.00000
     21       3.7852      2.00000
     22       3.9354      2.00000
     23       4.3855      2.00000
     24       4.9806      2.00000
     25       5.0267      2.00000
     26       5.7365      2.00000
     27       6.6713      0.00000
     28       7.3004      0.00000
     29       8.0107      0.00000
     30       8.0547      0.00000
     31       8.4869      0.00000
     32       8.9992      0.00000


--------------------------------------------------------------------------------------------------------


 soft charge-density along one line, spin component           1
         0         1         2         3         4         5         6         7         8         9
 total charge-density along one line
 
 pseudopotential strength for first ion, spin component:           1
 -5.071  11.444   0.003  -0.009   0.003  -0.002   0.001   0.001
 11.444   3.261  -0.002  -0.001   0.000  -0.001   0.002  -0.002
  0.003  -0.002 -18.133  -0.011  -0.012   8.955   0.012   0.014
 -0.009  -0.001  -0.011 -18.182  -0.004   0.012   9.011   0.006
  0.003   0.000  -0.012  -0.004 -18.147   0.014   0.006   8.973
 -0.002  -0.001   8.955   0.012   0.014   5.726  -0.007  -0.007
  0.001   0.002   0.012   9.011   0.006  -0.007   5.694  -0.003
  0.001  -0.002   0.014   0.006   8.973  -0.007  -0.003   5.716
 -0.015   0.009   0.002   0.000   0.007  -0.000  -0.000  -0.003
 -0.013   0.007  -0.001   0.001   0.000  -0.001  -0.001  -0.000
 -0.028   0.015  -0.002  -0.004  -0.003   0.001  -0.000   0.001
 -0.005   0.003   0.000  -0.003  -0.003  -0.000   0.002  -0.001
 -0.009   0.006   0.002  -0.001   0.001  -0.001   0.000   0.001
 -0.015   0.009   0.003   0.000   0.007  -0.000  -0.000  -0.004
 -0.014   0.008  -0.001   0.001   0.000  -0.001  -0.001  -0.000
 -0.029   0.016  -0.002  -0.004  -0.003   0.001  -0.000   0.001
 -0.005   0.003   0.000  -0.003  -0.003  -0.000   0.002  -0.001
 -0.009   0.006   0.002  -0.001   0.001  -0.001   0.000   0.001
 total augmentation occupancy for first ion, spin component:           1
  1.995  -0.041  -0.000   0.000  -0.000  -0.000   0.000  -0.001   0.024   0.022   0.050   0.003   0.015  -0.021  -0.020  -0.046
 -0.041   1.146  -0.004   0.011  -0.006   0.011  -0.048   0.021  -0.077  -0.064  -0.235  -0.196  -0.248   0.057   0.084   0.299
 -0.000  -0.004   1.997   0.000   0.000  -0.040  -0.001  -0.000  -0.001   0.016   0.001  -0.001   0.005  -0.000  -0.003  -0.002
  0.000   0.011   0.000   1.998   0.000  -0.002  -0.048  -0.002  -0.001  -0.009   0.007  -0.014   0.001   0.001   0.004  -0.008
 -0.000  -0.006   0.000   0.000   1.998  -0.000  -0.002  -0.043  -0.002  -0.000  -0.005   0.012  -0.003   0.005  -0.000   0.001
 -0.000   0.011  -0.040  -0.002  -0.000   0.072   0.006   0.002  -0.013   0.197  -0.016  -0.012   0.093   0.014  -0.225   0.017
  0.000  -0.048  -0.001  -0.048  -0.002   0.006   0.105   0.010  -0.015  -0.010  -0.033  -0.064  -0.070   0.010   0.024   0.033
 -0.001   0.021  -0.000  -0.002  -0.043   0.002   0.010   0.086   0.091  -0.018  -0.028   0.085  -0.011  -0.099   0.017   0.041
  0.024  -0.077  -0.001  -0.001  -0.002  -0.013  -0.015   0.091   2.138   0.001   0.153   0.798   0.112  -1.907  -0.087  -0.074
  0.022  -0.064   0.016  -0.009  -0.000   0.197  -0.010  -0.018   0.001   2.528   0.075   0.125   0.752  -0.088  -2.839  -0.142
  0.050  -0.235   0.001   0.007  -0.005  -0.016  -0.033  -0.028   0.153   0.075   1.518   0.338   0.196  -0.078  -0.140  -1.707
  0.003  -0.196  -0.001  -0.014   0.012  -0.012  -0.064   0.085   0.798   0.125   0.338   3.374   0.185  -1.204  -0.159  -0.499
  0.015  -0.248   0.005   0.001  -0.003   0.093  -0.070  -0.011   0.112   0.752   0.196   0.185   2.021  -0.041  -1.067  -0.164
 -0.021   0.057  -0.000   0.001   0.005   0.014   0.010  -0.099  -1.907  -0.088  -0.078  -1.204  -0.041   2.676   0.144   0.055
 -0.020   0.084  -0.003   0.004  -0.000  -0.225   0.024   0.017  -0.087  -2.839  -0.140  -0.159  -1.067   0.144   3.860   0.192
 -0.046   0.299  -0.002  -0.008   0.001   0.017   0.033   0.041  -0.074  -0.142  -1.707  -0.499  -0.164   0.055   0.192   2.631
 -0.003   0.237   0.001   0.005  -0.008   0.014   0.092  -0.091  -1.205  -0.160  -0.499  -4.085  -0.235   1.500   0.187   0.627
 -0.014   0.217  -0.000  -0.004   0.001  -0.103   0.072   0.018  -0.040  -1.068  -0.163  -0.234  -2.096   0.011   1.340   0.171


------------------------ aborting loop because EDIFF is reached ----------------------------------------


    CHARGE:  cpu time    0.0365: real time    0.0365
    FORLOC:  cpu time    0.0047: real time    0.0047
    FORNL :  cpu time    0.0731: real time    0.0731
    STRESS:  cpu time    0.1505: real time    0.1505
    FORCOR:  cpu time    0.0590: real time    0.0590
    FORHAR:  cpu time    0.0146: real time    0.0146
    MIXING:  cpu time    0.0019: real time    0.0019
    OFIELD:  cpu time    0.0000: real time    0.0000

  FORCE on cell =-STRESS in cart. coord.  units (eV):
  Direction    XX          YY          ZZ          XY          YZ          ZX
  --------------------------------------------------------------------------------------
  Alpha Z   160.27286   160.27286   160.27286
  Ewald    -188.29847  -261.63276 -2538.81764     6.59094    11.55383    26.53396
  Hartree  1239.51253  1210.22009  -721.98302     1.52756     3.51315     8.74825
  E(xc)    -218.24091  -218.35725  -218.51946    -0.00108     0.01131     0.04251
  Local   -2056.92527 -1956.69879  2252.86379    -5.84227   -13.12930   -35.12046
  n-local   236.50732   234.94564   246.11037    -0.06331     0.74410     1.90587
  augment    -1.33338    -0.69157    -4.56473    -0.27246    -0.37688    -0.46235
  Kinetic   826.09334   830.83962   817.65723    -1.67102    -1.63026    -0.68800
  Fock        0.00000     0.00000     0.00000     0.00000     0.00000     0.00000
  -------------------------------------------------------------------------------------
  Total      -2.41197    -1.10215    -6.98060     0.26836     0.68596     0.95978
  in kB     -32.73108   -14.95651   -94.72867     3.64171     9.30864    13.02444
  external pressure =      -47.47 kB  Pullay stress =        0.00 kB


 VOLUME and BASIS-vectors are now :
 -----------------------------------------------------------------------------
  energy-cutoff  :      500.00
  volume of cell :      118.07
      direct lattice vectors                 reciprocal lattice vectors
     1.596118927 -2.764559076  0.000000000     0.313259865 -0.180860668  0.000000000
     1.596118927  2.764559076  0.000000000     0.313259865  0.180860668  0.000000000
     0.000000000  0.000000000 13.378293991     0.000000000  0.000000000  0.074747946

  length of vectors
     3.192237854  3.192237854 13.378293991     0.361721335  0.361721335  0.074747946


 FORCES acting on ions
    electron-ion (+dipol)            ewald-force                    non-local-force                 convergence-correction
 -----------------------------------------------------------------------------------------------
   0.152E+02 0.678E+01 -.712E+01   -.141E+02 -.574E+01 0.583E+01   -.113E+01 -.666E+00 0.209E+01   0.176E-03 0.113E-04 0.305E-02
   -.111E-01 0.408E-01 -.545E+02   0.590E-02 -.479E-01 0.546E+02   -.281E-02 -.111E-01 -.335E-02   -.114E-04 -.199E-04 -.119E-02
   0.448E+00 0.220E+00 0.391E+03   -.463E+00 -.197E+00 -.396E+03   -.342E-02 -.191E-01 0.504E+01   -.358E-04 0.652E-05 0.127E-03
   -.147E+02 -.687E+01 -.284E+03   0.145E+02 0.626E+01 0.287E+03   0.511E+00 0.659E+00 -.474E+01   0.182E-04 -.510E-04 0.262E-02
   -.222E-02 0.369E-02 -.438E+03   -.432E-03 -.187E-03 0.443E+03   0.262E-02 0.457E-02 -.502E+01   0.923E-05 0.134E-04 0.167E-02
   0.105E+00 0.382E+00 0.390E+03   0.345E-01 -.278E+00 -.394E+03   -.419E+00 -.521E+00 0.479E+01   -.118E-03 -.824E-04 -.550E-02
 -----------------------------------------------------------------------------------------------
   0.104E+01 0.554E+00 -.215E+01   -.309E-13 0.461E-14 0.000E+00   -.104E+01 -.554E+00 0.215E+01   0.389E-04 -.122E-03 0.781E-03
 
 
 POSITION                                       TOTAL-FORCE (eV/Angst)
 -----------------------------------------------------------------------------------
      1.59612     -0.92152      3.34457        -0.026079      0.377311      0.798482
      1.59612      0.92152     10.03372        -0.008009     -0.018218      0.024938
      1.59612     -0.92152      8.46956        -0.018065      0.003451      0.334464
      1.34066      2.14574      5.33314         0.331541      0.046331     -2.223173
      1.59612     -0.92152     11.59788        -0.000015      0.008098     -0.302276
      1.59612      0.92152      1.78041        -0.279372     -0.416973      1.367565
 -----------------------------------------------------------------------------------
    total drift:                                0.000001     -0.000096      0.000529


--------------------------------------------------------------------------------------------------------



  FREE ENERGIE OF THE ION-ELECTRON SYSTEM (eV)
  ---------------------------------------------------
  free  energy   TOTEN  =       -42.27970784 eV

  energy  without entropy=      -42.27945769  energy(sigma->0) =      -42.27958276
 


--------------------------------------------------------------------------------------------------------


    POTLOK:  cpu time    0.0604: real time    0.0604


--------------------------------------------------------------------------------------------------------


 stress matrix after NEB project (eV)
     -2.41197      0.26836      0.95978
      0.26836     -1.10215      0.68596
      0.95978      0.68596     -6.98060
  FORCES: max atom, RMS     2.248235    1.166332
  FORCE total and by dimension    2.856919    2.223173
  Stress total and by dimension    7.660845    6.980600
 writing wavefunctions
     LOOP+:  cpu time    9.4603: real time    9.5268
    4ORBIT:  cpu time    0.0000: real time    0.0000

 total amount of memory used by VASP MPI-rank0    38677. kBytes
=======================================================================

   base      :      30000. kBytes
   nonl-proj :       1371. kBytes
   fftplans  :       2330. kBytes
   grid      :       3750. kBytes
   one-center:         31. kBytes
   wavefun   :       1195. kBytes
 
  
  
 General timing and accounting informations for this job:
 ========================================================
  
                  Total CPU time used (sec):       11.098
                            User time (sec):       10.182
                          System time (sec):        0.917
                         Elapsed time (sec):       11.596
  
                   Maximum memory used (kb):      123460.
                   Average memory used (kb):          N/A
  
                          Minor page faults:        27146
                          Major page faults:            0
                 Voluntary context switches:          959
