 vasp.6.2.0 18Jan21 (build Jul 31 2023 14:19:35) complex                        
  
 executed on             LinuxIFC date 2025.09.17  14:44:58
 running on    8 total cores
 distrk:  each k-point on    8 cores,    1 groups
 distr:  one band on NCORE=   4 cores,    2 groups


--------------------------------------------------------------------------------------------------------


 INCAR:
   SYSTEM = MoS2_SinglePoint_vdW_Coulomb
   PREC = Accurate
   ENCUT = 500
   GGA = PE
   ALGO = Normal
   NELM = 100
   NELMIN = 5
   EDIFF = 1E-6
   ISMEAR = 0
   SIGMA = 0.05
   IBRION = -1
   NSW = 0
   LREAL = .FALSE.
   LCHARG = .TRUE.
   LWAVE = .TRUE.
   NWRITE = 1
   NCORE = 4

 POTCAR:    PAW_PBE Mo_sv 02Feb2006               
 POTCAR:    PAW_PBE S 06Sep2000                   
 POTCAR:    PAW_PBE Mo_sv 02Feb2006               
  local pseudopotential read in
  partial core-charges read in
  partial kinetic energy density read in
  atomic valenz-charges read in
  non local Contribution for L=           0  read in
    real space projection operators read in
  non local Contribution for L=           0  read in
    real space projection operators read in
  non local Contribution for L=           1  read in
    real space projection operators read in
  non local Contribution for L=           1  read in
    real space projection operators read in
  non local Contribution for L=           2  read in
    real space projection operators read in
  non local Contribution for L=           2  read in
    real space projection operators read in
    PAW grid and wavefunctions read in
 
   number of l-projection  operators is LMAX  =           6
   number of lm-projection operators is LMMAX =          18
 
 POTCAR:    PAW_PBE S 06Sep2000                   
  local pseudopotential read in
  partial core-charges read in
  partial kinetic energy density read in
  atomic valenz-charges read in
  non local Contribution for L=           0  read in
    real space projection operators read in
  non local Contribution for L=           0  read in
    real space projection operators read in
  non local Contribution for L=           1  read in
    real space projection operators read in
  non local Contribution for L=           1  read in
    real space projection operators read in
    PAW grid and wavefunctions read in
 
   number of l-projection  operators is LMAX  =           4
   number of lm-projection operators is LMMAX =           8
 
  PAW_PBE Mo_sv 02Feb2006               :
 energy of atom  1       EATOM=-1862.2866
 kinetic energy error for atom=    0.0074 (will be added to EATOM!!)
  PAW_PBE S 06Sep2000                   :
 energy of atom  2       EATOM= -276.8230
 kinetic energy error for atom=    0.0020 (will be added to EATOM!!)
 
 
 POSCAR: Mo S
  positions in direct lattice
  No initial velocities read in
 exchange correlation table for  LEXCH =        8
   RHO(1)=    0.500       N(1)  =     2000
   RHO(2)=  100.500       N(2)  =     4000

 VTST: version 4.0, (05/15/20)

 CHAIN: initializing optimizer
 
 OPT: Using VASP Dynamics algorithm
 CHAIN: Read ICHAIN            0
 
 POSCAR: Mo S
  positions in direct lattice
  No initial velocities read in
 


--------------------------------------------------------------------------------------------------------


 ion  position               nearest neighbor table
   1  0.667  0.333  0.250-   3 2.11   6 2.42   4 2.42   4 2.42   6 2.42   4 2.42   6 2.42
   2  0.333  0.667  0.750-   5 2.42   5 2.42   5 2.42
   3  0.667  0.333  0.408-   4 1.92   4 1.92   4 1.92   1 2.11
   4  0.333  0.667  0.367-   3 1.92   3 1.92   3 1.92   1 2.42   1 2.42   1 2.42
   5  0.667  0.333  0.867-   2 2.42   2 2.42   2 2.42
   6  0.333  0.667  0.133-   1 2.42   1 2.42   1 2.42
 
  LATTYP: Found a hexagonal cell.
 ALAT       =     3.1922378540
 C/A-ratio  =     4.1908825730
  
  Lattice vectors:
  
 A1 = (   1.5961189270,  -2.7645590765,   0.0000000000)
 A2 = (   1.5961189270,   2.7645590765,   0.0000000000)
 A3 = (   0.0000000000,   0.0000000000,  13.3782939911)


Analysis of symmetry for initial positions (statically):
=====================================================================
 Subroutine PRICEL returns:
 Original cell was already a primitive cell.
 

 Routine SETGRP: Setting up the symmetry group for a 
 hexagonal supercell.


 Subroutine GETGRP returns: Found  6 space group operations
 (whereof  6 operations were pure point group operations)
 out of a pool of 24 trial point group operations.


The static configuration has the point symmetry C_3v.


Analysis of symmetry for dynamics (positions and initial velocities):
=====================================================================
 Subroutine PRICEL returns:
 Original cell was already a primitive cell.
 

 Routine SETGRP: Setting up the symmetry group for a 
 hexagonal supercell.


 Subroutine GETGRP returns: Found  6 space group operations
 (whereof  6 operations were pure point group operations)
 out of a pool of 24 trial point group operations.


The dynamic configuration has the point symmetry C_3v.


 Subroutine INISYM returns: Found  6 space group operations
 (whereof  6 operations are pure point group operations),
 and found     1 'primitive' translations


----------------------------------------------------------------------------------------

                                     Primitive cell                                     

  volume of cell :     118.0652

  direct lattice vectors                    reciprocal lattice vectors
     1.596118927 -2.764559076  0.000000000     0.313259865 -0.180860668  0.000000000
     1.596118927  2.764559076  0.000000000     0.313259865  0.180860668  0.000000000
     0.000000000  0.000000000 13.378293991     0.000000000  0.000000000  0.074747946

  length of vectors
     3.192237854  3.192237854 13.378293991     0.361721335  0.361721335  0.074747946

  position of ions in fractional coordinates (direct lattice)
     0.666666667  0.333333333  0.250000000
     0.333333333  0.666666667  0.750000000
     0.666666667  0.333333333  0.408038515
     0.333333333  0.666666667  0.366918000
     0.666666667  0.333333333  0.866918000
     0.333333333  0.666666667  0.133082000

  ion indices of the primitive-cell ions
   primitive index   ion index
                 1           1
                 2           2
                 3           3
                 4           4
                 5           5
                 6           6

----------------------------------------------------------------------------------------

 
 
 KPOINTS: K-Spacing Value to Generate K-Mesh: 0.15

Automatic generation of k-mesh.
 Grid dimensions read from file:
 generate k-points for:    2    2    1

 Generating k-lattice:

  Cartesian coordinates                     Fractional coordinates (reciprocal lattice)
     0.156629933 -0.090430334  0.000000000     0.500000000  0.000000000  0.000000000
     0.156629933  0.090430334  0.000000000     0.000000000  0.500000000  0.000000000
     0.000000000  0.000000000  0.074747946     0.000000000  0.000000000  1.000000000

  Length of vectors
     0.180860668  0.180860668  0.074747946

  Shift w.r.t. Gamma in fractional coordinates (k-lattice)
     0.500000000  0.500000000  0.000000000

 
 Subroutine IBZKPT returns following result:
 ===========================================
 
 Found      2 irreducible k-points:
 
 Following reciprocal coordinates:
            Coordinates               Weight
  0.250000  0.250000  0.000000      6.000000
 -0.250000  0.250000  0.000000      6.000000
 
 Following cartesian coordinates:
            Coordinates               Weight
  0.156630  0.000000  0.000000      6.000000
  0.000000  0.090430  0.000000      6.000000
 


--------------------------------------------------------------------------------------------------------




 Dimension of arrays:
   k-points           NKPTS =      2   k-points in BZ     NKDIM =      2   number of bands    NBANDS=     32
   number of dos      NEDOS =    301   number of ions     NIONS =      6
   non local maximal  LDIM  =      6   non local SUM 2l+1 LMDIM =     18
   total plane-waves  NPLWV =  56448
   max r-space proj   IRMAX =      1   max aug-charges    IRDMAX=  21106
   dimension x,y,z NGX =    24 NGY =   24 NGZ =   98
   dimension x,y,z NGXF=    48 NGYF=   48 NGZF=  196
   support grid    NGXF=    48 NGYF=   48 NGZF=  196
   ions per type =               2   4
   NGX,Y,Z   is equivalent  to a cutoff of  12.50, 12.50, 12.18 a.u.
   NGXF,Y,Z  is equivalent  to a cutoff of  25.00, 25.00, 24.36 a.u.

 SYSTEM =  MoS2_SinglePoint_vdW_Coulomb           
 POSCAR =  Mo S                                    

 Startparameter for this run:
   NWRITE =      1    write-flag & timer
   PREC   = accura    normal or accurate (medium, high low for compatibility)
   ISTART =      0    job   : 0-new  1-cont  2-samecut
   ICHARG =      2    charge: 1-file 2-atom 10-const
   ISPIN  =      1    spin polarized calculation?
   LNONCOLLINEAR =      F non collinear calculations
   LSORBIT =      F    spin-orbit coupling
   INIWAV =      1    electr: 0-lowe 1-rand  2-diag
   LASPH  =      F    aspherical Exc in radial PAW
   METAGGA=      F    non-selfconsistent MetaGGA calc.

 Electronic Relaxation 1
   ENCUT  =  500.0 eV  36.75 Ry    6.06 a.u.   5.82  5.82 24.39*2*pi/ulx,y,z
   ENINI  =  500.0     initial cutoff
   ENAUG  =  446.0 eV  augmentation charge cutoff
   NELM   =    100;   NELMIN=  5; NELMDL= -5     # of ELM steps 
   EDIFF  = 0.1E-05   stopping-criterion for ELM
   LREAL  =      F    real-space projection
   NLSPLINE    = F    spline interpolate recip. space projectors
   LCOMPAT=      F    compatible to vasp.4.4
   GGA_COMPAT  = T    GGA compatible to vasp.4.4-vasp.4.6
   LMAXPAW     = -100 max onsite density
   LMAXMIX     =    2 max onsite mixed and CHGCAR
   VOSKOWN=      0    Vosko Wilk Nusair interpolation
   ROPT   =    0.00000   0.00000
 Ionic relaxation
   EDIFFG = 0.1E-04   stopping-criterion for IOM
   NSW    =      0    number of steps for IOM
   NBLOCK =      1;   KBLOCK =      1    inner block; outer block 
   IBRION =     -1    ionic relax: 0-MD 1-quasi-New 2-CG
   NFREE  =      0    steps in history (QN), initial steepest desc. (CG)
   ISIF   =      2    stress and relaxation
   IWAVPR =     10    prediction:  0-non 1-charg 2-wave 3-comb
   ISYM   =      2    0-nonsym 1-usesym 2-fastsym
   LCORR  =      T    Harris-Foulkes like correction to forces

   POTIM  = 0.5000    time-step for ionic-motion
   TEIN   =    0.0    initial temperature
   TEBEG  =    0.0;   TEEND  =   0.0 temperature during run
   SMASS  =  -3.00    Nose mass-parameter (am)
   estimated Nose-frequenzy (Omega)   =  0.10E-29 period in steps = 0.13E+47 mass=  -0.233E-27a.u.
   SCALEE = 1.0000    scale energy and forces
   NPACO  =    256;   APACO  = 16.0  distance and # of slots for P.C.
   PSTRESS=    0.0 pullay stress

  Mass of Ions in am
   POMASS =  95.94 32.07
  Ionic Valenz
   ZVAL   =  14.00  6.00
  Atomic Wigner-Seitz radii
   RWIGS  =  -1.00 -1.00
  virtual crystal weights 
   VCA    =   1.00  1.00
   NELECT =      52.0000    total number of electrons
   NUPDOWN=      -1.0000    fix difference up-down

 DOS related values:
   EMIN   =  10.00;   EMAX   =-10.00  energy-range for DOS
   EFERMI =   0.00
   ISMEAR =     0;   SIGMA  =   0.05  broadening in eV -4-tet -1-fermi 0-gaus

 Electronic relaxation 2 (details)
   IALGO  =     38    algorithm
   LDIAG  =      T    sub-space diagonalisation (order eigenvalues)
   LSUBROT=      F    optimize rotation matrix (better conditioning)
   TURBO    =      0    0=normal 1=particle mesh
   IRESTART =      0    0=no restart 2=restart with 2 vectors
   NREBOOT  =      0    no. of reboots
   NMIN     =      0    reboot dimension
   EREF     =   0.00    reference energy to select bands
   IMIX   =      4    mixing-type and parameters
     AMIX     =   0.40;   BMIX     =  1.00
     AMIX_MAG =   1.60;   BMIX_MAG =  1.00
     AMIN     =   0.10
     WC   =   100.;   INIMIX=   1;  MIXPRE=   1;  MAXMIX= -45

 Intra band minimization:
   WEIMIN = 0.0000     energy-eigenvalue tresh-hold
   EBREAK =  0.78E-08  absolut break condition
   DEPER  =   0.30     relativ break condition  

   TIME   =   0.40     timestep for ELM

  volume/ion in A,a.u.               =      19.68       132.79
  Fermi-wavevector in a.u.,A,eV,Ry     =   1.245571  2.353789 21.108736  1.551448
  Thomas-Fermi vector in A             =   2.379788
 
 Write flags
   LWAVE        =      T    write WAVECAR
   LDOWNSAMPLE  =      F    k-point downsampling of WAVECAR
   LCHARG       =      T    write CHGCAR
   LVTOT        =      F    write LOCPOT, total local potential
   LVHAR        =      F    write LOCPOT, Hartree potential only
   LELF         =      F    write electronic localiz. function (ELF)
   LORBIT       =      0    0 simple, 1 ext, 2 COOP (PROOUT), +10 PAW based schemes


 Dipole corrections
   LMONO  =      F    monopole corrections only (constant potential shift)
   LDIPOL =      F    correct potential (dipole corrections)
   IDIPOL =      0    1-x, 2-y, 3-z, 4-all directions 
   EPSILON=  1.0000000 bulk dielectric constant

 Exchange correlation treatment:
   GGA     =    PE    GGA type
   LEXCH   =     8    internal setting for exchange type
   VOSKOWN=      0    Vosko Wilk Nusair interpolation
   LHFCALC =     F    Hartree Fock is set to
   LHFONE  =     F    Hartree Fock one center treatment
   AEXX    =    0.0000 exact exchange contribution

 Linear response parameters
   LEPSILON=     F    determine dielectric tensor
   LRPA    =     F    only Hartree local field effects (RPA)
   LNABLA  =     F    use nabla operator in PAW spheres
   LVEL    =     F    velocity operator in full k-point grid
   LINTERFAST=   F  fast interpolation
   KINTER  =     0    interpolate to denser k-point grid
   CSHIFT  =0.1000    complex shift for real part using Kramers Kronig
   OMEGAMAX=  -1.0    maximum frequency
   DEG_THRESHOLD= 0.2000000E-02 threshold for treating states as degnerate
   RTIME   =   -0.100 relaxation time in fs
  (WPLASMAI=    0.000 imaginary part of plasma frequency in eV, 0.658/RTIME)
   DFIELD  = 0.0000000 0.0000000 0.0000000 field for delta impulse in time
 
 Orbital magnetization related:
   ORBITALMAG=     F  switch on orbital magnetization
   LCHIMAG   =     F  perturbation theory with respect to B field
   DQ        =  0.001000  dq finite difference perturbation B field
   LLRAUG    =     F  two centre corrections for induced B field



--------------------------------------------------------------------------------------------------------


 Static calculation
 charge density and potential will be updated during run
 non-spin polarized calculation
 Variant of blocked Davidson
 Davidson routine will perform the subspace rotation
 perform sub-space diagonalisation
    after iterative eigenvector-optimisation
 modified Broyden-mixing scheme, WC =      100.0
 initial mixing is a Kerker type mixing with AMIX =  0.4000 and BMIX =      1.0000
 Hartree-type preconditioning will be used
 using additional bands            6
 reciprocal scheme for non local part
 use partial core corrections
 calculate Harris-corrections to forces 
   (improved forces if not selfconsistent)
 use gradient corrections 
 use of overlap-Matrix (Vanderbilt PP)
 Gauss-broadening in eV      SIGMA  =   0.05


--------------------------------------------------------------------------------------------------------


  energy-cutoff  :      500.00
  volume of cell :      118.07
      direct lattice vectors                 reciprocal lattice vectors
     1.596118927 -2.764559076  0.000000000     0.313259865 -0.180860668  0.000000000
     1.596118927  2.764559076  0.000000000     0.313259865  0.180860668  0.000000000
     0.000000000  0.000000000 13.378293991     0.000000000  0.000000000  0.074747946

  length of vectors
     3.192237854  3.192237854 13.378293991     0.361721335  0.361721335  0.074747946


 
 k-points in units of 2pi/SCALE and weight: K-Spacing Value to Generate K-Mesh: 0.15
   0.15662993  0.00000000  0.00000000       0.500
   0.00000000  0.09043033  0.00000000       0.500
 
 k-points in reciprocal lattice and weights: K-Spacing Value to Generate K-Mesh: 0.15
   0.25000000  0.25000000  0.00000000       0.500
  -0.25000000  0.25000000  0.00000000       0.500
 
 position of ions in fractional coordinates (direct lattice) 
   0.66666667  0.33333333  0.25000000
   0.33333333  0.66666667  0.75000000
   0.66666667  0.33333333  0.40803851
   0.33333333  0.66666667  0.36691800
   0.66666667  0.33333333  0.86691800
   0.33333333  0.66666667  0.13308200
 
 position of ions in cartesian coordinates  (Angst):
   1.59611893 -0.92151969  3.34457350
   1.59611893  0.92151969 10.03372049
   1.59611893 -0.92151969  5.45885921
   1.59611893  0.92151969  4.90873687
   1.59611893 -0.92151969 11.59788387
   1.59611893  0.92151969  1.78041012
 


--------------------------------------------------------------------------------------------------------


 k-point   1 :   0.2500 0.2500 0.0000  plane waves:    3020
 k-point   2 :  -0.2500 0.2500 0.0000  plane waves:    2992

 maximum and minimum number of plane-waves per node :       768      742

 maximum number of plane-waves:      3020
 maximum index in each direction: 
   IXMAX=    6   IYMAX=    5   IZMAX=   24
   IXMIN=   -6   IYMIN=   -6   IZMIN=  -24


 parallel 3D FFT for wavefunctions:
    minimum data exchange during FFTs selected (reduces bandwidth)
 parallel 3D FFT for charge:
    minimum data exchange during FFTs selected (reduces bandwidth)


 total amount of memory used by VASP MPI-rank0    37007. kBytes
=======================================================================

   base      :      30000. kBytes
   nonl-proj :        502. kBytes
   fftplans  :       2328. kBytes
   grid      :       3750. kBytes
   one-center:         31. kBytes
   wavefun   :        396. kBytes
 
     INWAV:  cpu time    0.0000: real time    0.0000
 Broyden mixing: mesh for mixing (old mesh)
   NGX = 11   NGY = 11   NGZ = 49
  (NGX  = 48   NGY  = 48   NGZ  =196)
  gives a total of   5929 points

 initial charge density was supplied:
 charge density of overlapping atoms calculated
 number of electron      52.0000000 magnetization 
 keeping initial charge density in first step


--------------------------------------------------------------------------------------------------------


 Maximum index for augmentation-charges         2591 (set IRDMAX)


--------------------------------------------------------------------------------------------------------


 First call to EWALD:  gamma=   0.361
 Maximum number of real-space cells 4x 4x 1
 Maximum number of reciprocal cells 2x 2x 7

    FEWALD:  cpu time    0.0020: real time    0.0020


--------------------------------------- Iteration      1(   1)  ---------------------------------------


    POTLOK:  cpu time    0.0585: real time    0.0596
    SETDIJ:  cpu time    0.0055: real time    0.0055
     EDDAV:  cpu time    0.1346: real time    0.1347
       DOS:  cpu time    0.0004: real time    0.0004
    --------------------------------------------
      LOOP:  cpu time    0.1989: real time    0.2002

 eigenvalue-minimisations  :   144
 total energy-change (2. order) : 0.4560081E+03  (-0.2922442E+04)
 number of electron      52.0000000 magnetization 
 augmentation part       52.0000000 magnetization 

 Free energy of the ion-electron system (eV)
  ---------------------------------------------------
  alpha Z        PSCENC =       160.27286088
  Ewald energy   TEWEN  =     -2431.36681193
  -Hartree energ DENC   =     -2286.49927938
  -exchange      EXHF   =         0.00000000
  -V(xc)+E(xc)   XCENC  =       185.33041606
  PAW double counting   =      3865.57804258    -3815.84821480
  entropy T*S    EENTRO =        -0.00097938
  eigenvalues    EBANDS =       -53.30060684
  atomic energy  EATOM  =      4831.84262874
  Solvation  Ediel_sol  =         0.00000000
  ---------------------------------------------------
  free energy    TOTEN  =       456.00805593 eV

  energy without entropy =      456.00903531  energy(sigma->0) =      456.00854562


--------------------------------------------------------------------------------------------------------




--------------------------------------- Iteration      1(   2)  ---------------------------------------


     EDDAV:  cpu time    0.1404: real time    0.1432
       DOS:  cpu time    0.0003: real time    0.0003
    --------------------------------------------
      LOOP:  cpu time    0.1408: real time    0.1436

 eigenvalue-minimisations  :   160
 total energy-change (2. order) :-0.4654289E+03  (-0.4547036E+03)
 number of electron      52.0000000 magnetization 
 augmentation part       52.0000000 magnetization 

 Free energy of the ion-electron system (eV)
  ---------------------------------------------------
  alpha Z        PSCENC =       160.27286088
  Ewald energy   TEWEN  =     -2431.36681193
  -Hartree energ DENC   =     -2286.49927938
  -exchange      EXHF   =         0.00000000
  -V(xc)+E(xc)   XCENC  =       185.33041606
  PAW double counting   =      3865.57804258    -3815.84821480
  entropy T*S    EENTRO =        -0.02873250
  eigenvalues    EBANDS =      -518.70176992
  atomic energy  EATOM  =      4831.84262874
  Solvation  Ediel_sol  =         0.00000000
  ---------------------------------------------------
  free energy    TOTEN  =        -9.42086026 eV

  energy without entropy =       -9.39212776  energy(sigma->0) =       -9.40649401


--------------------------------------------------------------------------------------------------------




--------------------------------------- Iteration      1(   3)  ---------------------------------------


     EDDAV:  cpu time    0.1457: real time    0.1490
       DOS:  cpu time    0.0001: real time    0.0001
    --------------------------------------------
      LOOP:  cpu time    0.1457: real time    0.1491

 eigenvalue-minimisations  :   168
 total energy-change (2. order) :-0.2498407E+02  (-0.2407632E+02)
 number of electron      52.0000000 magnetization 
 augmentation part       52.0000000 magnetization 

 Free energy of the ion-electron system (eV)
  ---------------------------------------------------
  alpha Z        PSCENC =       160.27286088
  Ewald energy   TEWEN  =     -2431.36681193
  -Hartree energ DENC   =     -2286.49927938
  -exchange      EXHF   =         0.00000000
  -V(xc)+E(xc)   XCENC  =       185.33041606
  PAW double counting   =      3865.57804258    -3815.84821480
  entropy T*S    EENTRO =        -0.00000000
  eigenvalues    EBANDS =      -543.71457371
  atomic energy  EATOM  =      4831.84262874
  Solvation  Ediel_sol  =         0.00000000
  ---------------------------------------------------
  free energy    TOTEN  =       -34.40493155 eV

  energy without entropy =      -34.40493155  energy(sigma->0) =      -34.40493155


--------------------------------------------------------------------------------------------------------




--------------------------------------- Iteration      1(   4)  ---------------------------------------


     EDDAV:  cpu time    0.1507: real time    0.1545
       DOS:  cpu time    0.0001: real time    0.0001
    --------------------------------------------
      LOOP:  cpu time    0.1508: real time    0.1547

 eigenvalue-minimisations  :   176
 total energy-change (2. order) :-0.6067722E+00  (-0.6028708E+00)
 number of electron      52.0000000 magnetization 
 augmentation part       52.0000000 magnetization 

 Free energy of the ion-electron system (eV)
  ---------------------------------------------------
  alpha Z        PSCENC =       160.27286088
  Ewald energy   TEWEN  =     -2431.36681193
  -Hartree energ DENC   =     -2286.49927938
  -exchange      EXHF   =         0.00000000
  -V(xc)+E(xc)   XCENC  =       185.33041606
  PAW double counting   =      3865.57804258    -3815.84821480
  entropy T*S    EENTRO =        -0.00000000
  eigenvalues    EBANDS =      -544.32134590
  atomic energy  EATOM  =      4831.84262874
  Solvation  Ediel_sol  =         0.00000000
  ---------------------------------------------------
  free energy    TOTEN  =       -35.01170374 eV

  energy without entropy =      -35.01170374  energy(sigma->0) =      -35.01170374


--------------------------------------------------------------------------------------------------------




--------------------------------------- Iteration      1(   5)  ---------------------------------------


     EDDAV:  cpu time    0.1448: real time    0.1487
       DOS:  cpu time    0.0003: real time    0.0003
    CHARGE:  cpu time    0.0226: real time    0.0226
    MIXING:  cpu time    0.0014: real time    0.0014
    --------------------------------------------
      LOOP:  cpu time    0.1690: real time    0.1730

 eigenvalue-minimisations  :   168
 total energy-change (2. order) :-0.1041768E-01  (-0.1041045E-01)
 number of electron      51.9999992 magnetization 
 augmentation part        0.9863395 magnetization 

 Broyden mixing:
  rms(total) = 0.54273E+01    rms(broyden)= 0.54273E+01
  rms(prec ) = 0.54810E+01
  weight for this iteration     100.00

 Free energy of the ion-electron system (eV)
  ---------------------------------------------------
  alpha Z        PSCENC =       160.27286088
  Ewald energy   TEWEN  =     -2431.36681193
  -Hartree energ DENC   =     -2286.49927938
  -exchange      EXHF   =         0.00000000
  -V(xc)+E(xc)   XCENC  =       185.33041606
  PAW double counting   =      3865.57804258    -3815.84821480
  entropy T*S    EENTRO =        -0.00000000
  eigenvalues    EBANDS =      -544.33176358
  atomic energy  EATOM  =      4831.84262874
  Solvation  Ediel_sol  =         0.00000000
  ---------------------------------------------------
  free energy    TOTEN  =       -35.02212142 eV

  energy without entropy =      -35.02212142  energy(sigma->0) =      -35.02212142


--------------------------------------------------------------------------------------------------------




--------------------------------------- Iteration      1(   6)  ---------------------------------------


    POTLOK:  cpu time    0.0552: real time    0.0590
    SETDIJ:  cpu time    0.0053: real time    0.0053
     EDDAV:  cpu time    0.1257: real time    0.1257
       DOS:  cpu time    0.0003: real time    0.0003
    CHARGE:  cpu time    0.0223: real time    0.0223
    MIXING:  cpu time    0.0014: real time    0.0014
    --------------------------------------------
      LOOP:  cpu time    0.2101: real time    0.2140

 eigenvalue-minimisations  :   136
 total energy-change (2. order) : 0.1955174E+01  (-0.1432900E+01)
 number of electron      51.9999990 magnetization 
 augmentation part        1.8281998 magnetization 

 Broyden mixing:
  rms(total) = 0.27119E+01    rms(broyden)= 0.27119E+01
  rms(prec ) = 0.27447E+01
  weight for this iteration     100.00

 eigenvalues of (default mixing * dielectric matrix)
  average eigenvalue GAMMA=   1.7216
  1.7216

 Free energy of the ion-electron system (eV)
  ---------------------------------------------------
  alpha Z        PSCENC =       160.27286088
  Ewald energy   TEWEN  =     -2431.36681193
  -Hartree energ DENC   =     -2253.69116310
  -exchange      EXHF   =         0.00000000
  -V(xc)+E(xc)   XCENC  =       184.09852273
  PAW double counting   =      5454.40967377    -5409.83882272
  entropy T*S    EENTRO =        -0.00689038
  eigenvalues    EBANDS =      -568.78694562
  atomic energy  EATOM  =      4831.84262874
  Solvation  Ediel_sol  =         0.00000000
  ---------------------------------------------------
  free energy    TOTEN  =       -33.06694762 eV

  energy without entropy =      -33.06005724  energy(sigma->0) =      -33.06350243


--------------------------------------------------------------------------------------------------------




--------------------------------------- Iteration      1(   7)  ---------------------------------------


    POTLOK:  cpu time    0.0551: real time    0.0590
    SETDIJ:  cpu time    0.0053: real time    0.0053
     EDDAV:  cpu time    0.1287: real time    0.1288
       DOS:  cpu time    0.0001: real time    0.0001
    CHARGE:  cpu time    0.0219: real time    0.0219
    MIXING:  cpu time    0.0014: real time    0.0014
    --------------------------------------------
      LOOP:  cpu time    0.2127: real time    0.2167

 eigenvalue-minimisations  :   144
 total energy-change (2. order) :-0.5829155E+00  (-0.1431384E+01)
 number of electron      51.9999992 magnetization 
 augmentation part        1.1021047 magnetization 

 Broyden mixing:
  rms(total) = 0.13883E+01    rms(broyden)= 0.13883E+01
  rms(prec ) = 0.15122E+01
  weight for this iteration     100.00

 eigenvalues of (default mixing * dielectric matrix)
  average eigenvalue GAMMA=   1.4797
  0.6648  2.2946

 Free energy of the ion-electron system (eV)
  ---------------------------------------------------
  alpha Z        PSCENC =       160.27286088
  Ewald energy   TEWEN  =     -2431.36681193
  -Hartree energ DENC   =     -2292.99289182
  -exchange      EXHF   =         0.00000000
  -V(xc)+E(xc)   XCENC  =       184.90982429
  PAW double counting   =      7742.57710747    -7696.72372063
  entropy T*S    EENTRO =        -0.00000000
  eigenvalues    EBANDS =      -532.16886012
  atomic energy  EATOM  =      4831.84262874
  Solvation  Ediel_sol  =         0.00000000
  ---------------------------------------------------
  free energy    TOTEN  =       -33.64986311 eV

  energy without entropy =      -33.64986311  energy(sigma->0) =      -33.64986311


--------------------------------------------------------------------------------------------------------




--------------------------------------- Iteration      1(   8)  ---------------------------------------


    POTLOK:  cpu time    0.0585: real time    0.0623
    SETDIJ:  cpu time    0.0055: real time    0.0055
     EDDAV:  cpu time    0.1359: real time    0.1361
       DOS:  cpu time    0.0002: real time    0.0002
    CHARGE:  cpu time    0.0222: real time    0.0222
    MIXING:  cpu time    0.0015: real time    0.0015
    --------------------------------------------
      LOOP:  cpu time    0.2238: real time    0.2277

 eigenvalue-minimisations  :   152
 total energy-change (2. order) : 0.9444338E+00  (-0.6423859E+00)
 number of electron      51.9999990 magnetization 
 augmentation part        1.6844319 magnetization 

 Broyden mixing:
  rms(total) = 0.32510E+00    rms(broyden)= 0.32510E+00
  rms(prec ) = 0.46170E+00
  weight for this iteration     100.00

 eigenvalues of (default mixing * dielectric matrix)
  average eigenvalue GAMMA=   1.2745
  2.3923  0.8771  0.5541

 Free energy of the ion-electron system (eV)
  ---------------------------------------------------
  alpha Z        PSCENC =       160.27286088
  Ewald energy   TEWEN  =     -2431.36681193
  -Hartree energ DENC   =     -2265.96881441
  -exchange      EXHF   =         0.00000000
  -V(xc)+E(xc)   XCENC  =       184.26071423
  PAW double counting   =      8950.99336105    -8907.86151739
  entropy T*S    EENTRO =        -0.00000000
  eigenvalues    EBANDS =      -554.87785045
  atomic energy  EATOM  =      4831.84262874
  Solvation  Ediel_sol  =         0.00000000
  ---------------------------------------------------
  free energy    TOTEN  =       -32.70542929 eV

  energy without entropy =      -32.70542929  energy(sigma->0) =      -32.70542929


--------------------------------------------------------------------------------------------------------




--------------------------------------- Iteration      1(   9)  ---------------------------------------


    POTLOK:  cpu time    0.0558: real time    0.0585
    SETDIJ:  cpu time    0.0052: real time    0.0052
     EDDAV:  cpu time    0.1501: real time    0.1501
       DOS:  cpu time    0.0002: real time    0.0002
    CHARGE:  cpu time    0.0222: real time    0.0222
    MIXING:  cpu time    0.0015: real time    0.0015
    --------------------------------------------
      LOOP:  cpu time    0.2349: real time    0.2377

 eigenvalue-minimisations  :   176
 total energy-change (2. order) : 0.9840487E-01  (-0.1664500E+00)
 number of electron      51.9999991 magnetization 
 augmentation part        1.5570995 magnetization 

 Broyden mixing:
  rms(total) = 0.22857E+00    rms(broyden)= 0.22856E+00
  rms(prec ) = 0.27392E+00
  weight for this iteration     100.00

 eigenvalues of (default mixing * dielectric matrix)
  average eigenvalue GAMMA=   1.1792
  2.5819  1.1080  0.5545  0.4725

 Free energy of the ion-electron system (eV)
  ---------------------------------------------------
  alpha Z        PSCENC =       160.27286088
  Ewald energy   TEWEN  =     -2431.36681193
  -Hartree energ DENC   =     -2270.09092799
  -exchange      EXHF   =         0.00000000
  -V(xc)+E(xc)   XCENC  =       184.36813248
  PAW double counting   =      9113.63588241    -9070.22796499
  entropy T*S    EENTRO =        -0.00000000
  eigenvalues    EBANDS =      -551.04082402
  atomic energy  EATOM  =      4831.84262874
  Solvation  Ediel_sol  =         0.00000000
  ---------------------------------------------------
  free energy    TOTEN  =       -32.60702442 eV

  energy without entropy =      -32.60702442  energy(sigma->0) =      -32.60702442


--------------------------------------------------------------------------------------------------------




--------------------------------------- Iteration      1(  10)  ---------------------------------------


    POTLOK:  cpu time    0.0553: real time    0.0583
    SETDIJ:  cpu time    0.0053: real time    0.0053
     EDDAV:  cpu time    0.1389: real time    0.1389
       DOS:  cpu time    0.0001: real time    0.0001
    CHARGE:  cpu time    0.0219: real time    0.0219
    MIXING:  cpu time    0.0016: real time    0.0016
    --------------------------------------------
      LOOP:  cpu time    0.2231: real time    0.2261

 eigenvalue-minimisations  :   160
 total energy-change (2. order) : 0.2835299E-01  (-0.3185976E-01)
 number of electron      51.9999991 magnetization 
 augmentation part        1.6097437 magnetization 

 Broyden mixing:
  rms(total) = 0.10708E+00    rms(broyden)= 0.10708E+00
  rms(prec ) = 0.11355E+00
  weight for this iteration     100.00

 eigenvalues of (default mixing * dielectric matrix)
  average eigenvalue GAMMA=   1.1524
  2.6151  1.3718  0.6748  0.6748  0.4254

 Free energy of the ion-electron system (eV)
  ---------------------------------------------------
  alpha Z        PSCENC =       160.27286088
  Ewald energy   TEWEN  =     -2431.36681193
  -Hartree energ DENC   =     -2269.55409597
  -exchange      EXHF   =         0.00000000
  -V(xc)+E(xc)   XCENC  =       184.39946643
  PAW double counting   =      9315.04395681    -9271.72947331
  entropy T*S    EENTRO =        -0.00000000
  eigenvalues    EBANDS =      -551.48720309
  atomic energy  EATOM  =      4831.84262874
  Solvation  Ediel_sol  =         0.00000000
  ---------------------------------------------------
  free energy    TOTEN  =       -32.57867143 eV

  energy without entropy =      -32.57867143  energy(sigma->0) =      -32.57867143


--------------------------------------------------------------------------------------------------------




--------------------------------------- Iteration      1(  11)  ---------------------------------------


    POTLOK:  cpu time    0.0549: real time    0.0590
    SETDIJ:  cpu time    0.0053: real time    0.0053
     EDDAV:  cpu time    0.1415: real time    0.1416
       DOS:  cpu time    0.0002: real time    0.0002
    CHARGE:  cpu time    0.0220: real time    0.0220
    MIXING:  cpu time    0.0015: real time    0.0015
    --------------------------------------------
      LOOP:  cpu time    0.2254: real time    0.2296

 eigenvalue-minimisations  :   160
 total energy-change (2. order) : 0.1964014E-02  (-0.2689176E-02)
 number of electron      51.9999991 magnetization 
 augmentation part        1.5812446 magnetization 

 Broyden mixing:
  rms(total) = 0.63975E-01    rms(broyden)= 0.63975E-01
  rms(prec ) = 0.64647E-01
  weight for this iteration     100.00

 eigenvalues of (default mixing * dielectric matrix)
  average eigenvalue GAMMA=   1.2001
  2.1915  2.1915  1.0486  0.6801  0.6801  0.4088

 Free energy of the ion-electron system (eV)
  ---------------------------------------------------
  alpha Z        PSCENC =       160.27286088
  Ewald energy   TEWEN  =     -2431.36681193
  -Hartree energ DENC   =     -2271.28051781
  -exchange      EXHF   =         0.00000000
  -V(xc)+E(xc)   XCENC  =       184.44587643
  PAW double counting   =      9316.81756199    -9273.36881123
  entropy T*S    EENTRO =        -0.00000000
  eigenvalues    EBANDS =      -549.93949450
  atomic energy  EATOM  =      4831.84262874
  Solvation  Ediel_sol  =         0.00000000
  ---------------------------------------------------
  free energy    TOTEN  =       -32.57670742 eV

  energy without entropy =      -32.57670742  energy(sigma->0) =      -32.57670742


--------------------------------------------------------------------------------------------------------




--------------------------------------- Iteration      1(  12)  ---------------------------------------


    POTLOK:  cpu time    0.0552: real time    0.0589
    SETDIJ:  cpu time    0.0054: real time    0.0054
     EDDAV:  cpu time    0.1509: real time    0.1509
       DOS:  cpu time    0.0002: real time    0.0002
    CHARGE:  cpu time    0.0222: real time    0.0222
    MIXING:  cpu time    0.0016: real time    0.0016
    --------------------------------------------
      LOOP:  cpu time    0.2354: real time    0.2391

 eigenvalue-minimisations  :   176
 total energy-change (2. order) :-0.3724710E-03  (-0.3312255E-03)
 number of electron      51.9999991 magnetization 
 augmentation part        1.5747301 magnetization 

 Broyden mixing:
  rms(total) = 0.31032E-01    rms(broyden)= 0.31032E-01
  rms(prec ) = 0.32643E-01
  weight for this iteration     100.00

 eigenvalues of (default mixing * dielectric matrix)
  average eigenvalue GAMMA=   1.2761
  2.5086  2.5086  1.2259  0.8377  0.7176  0.7176  0.4164

 Free energy of the ion-electron system (eV)
  ---------------------------------------------------
  alpha Z        PSCENC =       160.27286088
  Ewald energy   TEWEN  =     -2431.36681193
  -Hartree energ DENC   =     -2271.66598440
  -exchange      EXHF   =         0.00000000
  -V(xc)+E(xc)   XCENC  =       184.45131492
  PAW double counting   =      9205.86121619    -9162.34878948
  entropy T*S    EENTRO =        -0.00000000
  eigenvalues    EBANDS =      -549.62351481
  atomic energy  EATOM  =      4831.84262874
  Solvation  Ediel_sol  =         0.00000000
  ---------------------------------------------------
  free energy    TOTEN  =       -32.57707989 eV

  energy without entropy =      -32.57707989  energy(sigma->0) =      -32.57707989


--------------------------------------------------------------------------------------------------------




--------------------------------------- Iteration      1(  13)  ---------------------------------------


    POTLOK:  cpu time    0.0551: real time    0.0584
    SETDIJ:  cpu time    0.0053: real time    0.0053
     EDDAV:  cpu time    0.1500: real time    0.1501
       DOS:  cpu time    0.0002: real time    0.0002
    CHARGE:  cpu time    0.0221: real time    0.0221
    MIXING:  cpu time    0.0016: real time    0.0016
    --------------------------------------------
      LOOP:  cpu time    0.2344: real time    0.2377

 eigenvalue-minimisations  :   176
 total energy-change (2. order) :-0.7375826E-04  (-0.1534489E-03)
 number of electron      51.9999991 magnetization 
 augmentation part        1.5813023 magnetization 

 Broyden mixing:
  rms(total) = 0.54056E-02    rms(broyden)= 0.54055E-02
  rms(prec ) = 0.59842E-02
  weight for this iteration     100.00

 eigenvalues of (default mixing * dielectric matrix)
  average eigenvalue GAMMA=   1.2577
  2.4660  2.4660  1.5252  0.9850  0.4162  0.7582  0.7582  0.6872

 Free energy of the ion-electron system (eV)
  ---------------------------------------------------
  alpha Z        PSCENC =       160.27286088
  Ewald energy   TEWEN  =     -2431.36681193
  -Hartree energ DENC   =     -2271.81673822
  -exchange      EXHF   =         0.00000000
  -V(xc)+E(xc)   XCENC  =       184.45594097
  PAW double counting   =      9231.18723122    -9187.69536862
  entropy T*S    EENTRO =        -0.00000000
  eigenvalues    EBANDS =      -549.45689668
  atomic energy  EATOM  =      4831.84262874
  Solvation  Ediel_sol  =         0.00000000
  ---------------------------------------------------
  free energy    TOTEN  =       -32.57715365 eV

  energy without entropy =      -32.57715365  energy(sigma->0) =      -32.57715365


--------------------------------------------------------------------------------------------------------




--------------------------------------- Iteration      1(  14)  ---------------------------------------


    POTLOK:  cpu time    0.0551: real time    0.0589
    SETDIJ:  cpu time    0.0054: real time    0.0054
     EDDAV:  cpu time    0.1386: real time    0.1387
       DOS:  cpu time    0.0002: real time    0.0002
    CHARGE:  cpu time    0.0222: real time    0.0222
    MIXING:  cpu time    0.0017: real time    0.0017
    --------------------------------------------
      LOOP:  cpu time    0.2231: real time    0.2269

 eigenvalue-minimisations  :   160
 total energy-change (2. order) :-0.2525868E-04  (-0.1360773E-04)
 number of electron      51.9999991 magnetization 
 augmentation part        1.5802801 magnetization 

 Broyden mixing:
  rms(total) = 0.34483E-02    rms(broyden)= 0.34483E-02
  rms(prec ) = 0.37477E-02
  weight for this iteration     100.00

 eigenvalues of (default mixing * dielectric matrix)
  average eigenvalue GAMMA=   1.2474
  2.5158  2.5158  1.5808  0.9381  0.9381  0.4162  0.8993  0.7113  0.7113

 Free energy of the ion-electron system (eV)
  ---------------------------------------------------
  alpha Z        PSCENC =       160.27286088
  Ewald energy   TEWEN  =     -2431.36681193
  -Hartree energ DENC   =     -2271.90932433
  -exchange      EXHF   =         0.00000000
  -V(xc)+E(xc)   XCENC  =       184.45780829
  PAW double counting   =      9225.41905656    -9181.92467791
  entropy T*S    EENTRO =        -0.00000000
  eigenvalues    EBANDS =      -549.36871921
  atomic energy  EATOM  =      4831.84262874
  Solvation  Ediel_sol  =         0.00000000
  ---------------------------------------------------
  free energy    TOTEN  =       -32.57717890 eV

  energy without entropy =      -32.57717890  energy(sigma->0) =      -32.57717890


--------------------------------------------------------------------------------------------------------




--------------------------------------- Iteration      1(  15)  ---------------------------------------


    POTLOK:  cpu time    0.0551: real time    0.0575
    SETDIJ:  cpu time    0.0053: real time    0.0053
     EDDAV:  cpu time    0.1322: real time    0.1324
       DOS:  cpu time    0.0001: real time    0.0001
    CHARGE:  cpu time    0.0223: real time    0.0223
    MIXING:  cpu time    0.0017: real time    0.0017
    --------------------------------------------
      LOOP:  cpu time    0.2167: real time    0.2194

 eigenvalue-minimisations  :   144
 total energy-change (2. order) :-0.1914355E-04  (-0.2449477E-05)
 number of electron      51.9999991 magnetization 
 augmentation part        1.5807429 magnetization 

 Broyden mixing:
  rms(total) = 0.16970E-02    rms(broyden)= 0.16970E-02
  rms(prec ) = 0.20182E-02
  weight for this iteration     100.00

 eigenvalues of (default mixing * dielectric matrix)
  average eigenvalue GAMMA=   1.3132
  2.4277  2.4277  2.0781  1.2588  1.2588  0.4162  0.9938  0.6983  0.7865  0.7865

 Free energy of the ion-electron system (eV)
  ---------------------------------------------------
  alpha Z        PSCENC =       160.27286088
  Ewald energy   TEWEN  =     -2431.36681193
  -Hartree energ DENC   =     -2271.94351590
  -exchange      EXHF   =         0.00000000
  -V(xc)+E(xc)   XCENC  =       184.45861761
  PAW double counting   =      9223.59327345    -9180.10012899
  entropy T*S    EENTRO =        -0.00000000
  eigenvalues    EBANDS =      -549.33412191
  atomic energy  EATOM  =      4831.84262874
  Solvation  Ediel_sol  =         0.00000000
  ---------------------------------------------------
  free energy    TOTEN  =       -32.57719805 eV

  energy without entropy =      -32.57719805  energy(sigma->0) =      -32.57719805


--------------------------------------------------------------------------------------------------------




--------------------------------------- Iteration      1(  16)  ---------------------------------------


    POTLOK:  cpu time    0.0553: real time    0.0588
    SETDIJ:  cpu time    0.0053: real time    0.0053
     EDDAV:  cpu time    0.1226: real time    0.1226
       DOS:  cpu time    0.0001: real time    0.0001
    CHARGE:  cpu time    0.0224: real time    0.0224
    MIXING:  cpu time    0.0018: real time    0.0018
    --------------------------------------------
      LOOP:  cpu time    0.2075: real time    0.2111

 eigenvalue-minimisations  :   136
 total energy-change (2. order) :-0.1160475E-04  (-0.1849099E-05)
 number of electron      51.9999991 magnetization 
 augmentation part        1.5802255 magnetization 

 Broyden mixing:
  rms(total) = 0.59750E-03    rms(broyden)= 0.59750E-03
  rms(prec ) = 0.76731E-03
  weight for this iteration     100.00

 eigenvalues of (default mixing * dielectric matrix)
  average eigenvalue GAMMA=   1.3358
  2.6370  2.6370  2.2886  1.4826  0.4162  1.0838  0.9431  0.9431  0.6935  0.7844
  0.7844

 Free energy of the ion-electron system (eV)
  ---------------------------------------------------
  alpha Z        PSCENC =       160.27286088
  Ewald energy   TEWEN  =     -2431.36681193
  -Hartree energ DENC   =     -2272.02012346
  -exchange      EXHF   =         0.00000000
  -V(xc)+E(xc)   XCENC  =       184.46064399
  PAW double counting   =      9224.17808286    -9180.68386754
  entropy T*S    EENTRO =        -0.00000000
  eigenvalues    EBANDS =      -549.26062320
  atomic energy  EATOM  =      4831.84262874
  Solvation  Ediel_sol  =         0.00000000
  ---------------------------------------------------
  free energy    TOTEN  =       -32.57720965 eV

  energy without entropy =      -32.57720965  energy(sigma->0) =      -32.57720965


--------------------------------------------------------------------------------------------------------




--------------------------------------- Iteration      1(  17)  ---------------------------------------


    POTLOK:  cpu time    0.0551: real time    0.0577
    SETDIJ:  cpu time    0.0054: real time    0.0054
     EDDAV:  cpu time    0.1291: real time    0.1291
       DOS:  cpu time    0.0001: real time    0.0001
    CHARGE:  cpu time    0.0223: real time    0.0223
    MIXING:  cpu time    0.0018: real time    0.0018
    --------------------------------------------
      LOOP:  cpu time    0.2139: real time    0.2164

 eigenvalue-minimisations  :   144
 total energy-change (2. order) :-0.3277920E-05  (-0.5228811E-06)
 number of electron      51.9999991 magnetization 
 augmentation part        1.5802307 magnetization 

 Broyden mixing:
  rms(total) = 0.40002E-03    rms(broyden)= 0.40002E-03
  rms(prec ) = 0.43642E-03
  weight for this iteration     100.00

 eigenvalues of (default mixing * dielectric matrix)
  average eigenvalue GAMMA=   1.3460
  2.6583  2.6583  2.6470  1.3821  1.1496  1.1496  0.4162  1.0267  0.7853  0.7853
  0.6962  0.7974

 Free energy of the ion-electron system (eV)
  ---------------------------------------------------
  alpha Z        PSCENC =       160.27286088
  Ewald energy   TEWEN  =     -2431.36681193
  -Hartree energ DENC   =     -2272.04732289
  -exchange      EXHF   =         0.00000000
  -V(xc)+E(xc)   XCENC  =       184.46130652
  PAW double counting   =      9223.66307641    -9180.16909802
  entropy T*S    EENTRO =        -0.00000000
  eigenvalues    EBANDS =      -549.23385264
  atomic energy  EATOM  =      4831.84262874
  Solvation  Ediel_sol  =         0.00000000
  ---------------------------------------------------
  free energy    TOTEN  =       -32.57721293 eV

  energy without entropy =      -32.57721293  energy(sigma->0) =      -32.57721293


--------------------------------------------------------------------------------------------------------




--------------------------------------- Iteration      1(  18)  ---------------------------------------


    POTLOK:  cpu time    0.0552: real time    0.0587
    SETDIJ:  cpu time    0.0053: real time    0.0053
     EDDAV:  cpu time    0.0984: real time    0.0984
       DOS:  cpu time    0.0001: real time    0.0001
    --------------------------------------------
      LOOP:  cpu time    0.1590: real time    0.1625

 eigenvalue-minimisations  :    96
 total energy-change (2. order) :-0.5607662E-06  (-0.8775632E-07)
 number of electron      51.9999991 magnetization 
 augmentation part        1.5802307 magnetization 

 Free energy of the ion-electron system (eV)
  ---------------------------------------------------
  alpha Z        PSCENC =       160.27286088
  Ewald energy   TEWEN  =     -2431.36681193
  -Hartree energ DENC   =     -2272.05568370
  -exchange      EXHF   =         0.00000000
  -V(xc)+E(xc)   XCENC  =       184.46149559
  PAW double counting   =      9223.74778090    -9180.25405873
  entropy T*S    EENTRO =        -0.00000000
  eigenvalues    EBANDS =      -549.22542523
  atomic energy  EATOM  =      4831.84262874
  Solvation  Ediel_sol  =         0.00000000
  ---------------------------------------------------
  free energy    TOTEN  =       -32.57721349 eV

  energy without entropy =      -32.57721349  energy(sigma->0) =      -32.57721349


--------------------------------------------------------------------------------------------------------




 average (electrostatic) potential at core
  the test charge radii are     1.0818  0.9698
  (the norm of the test charge is              1.0000)
       1 -75.0472       2 -75.2314       3 -87.4643       4 -88.0531       5 -85.3288
       6 -85.0137
 
 
 
 E-fermi :   6.9763     XC(G=0):  -9.9340     alpha+bet :-12.2268

 Fermi energy:         6.9763427497

 k-point     1 :       0.2500    0.2500    0.0000
  band No.  band energies     occupation 
      1     -54.4144      2.00000
      2     -54.3902      2.00000
      3     -28.9489      2.00000
      4     -28.6754      2.00000
      5     -28.5793      2.00000
      6     -28.5319      2.00000
      7     -28.5240      2.00000
      8     -28.4550      2.00000
      9     -12.4809      2.00000
     10      -9.2858      2.00000
     11      -5.9269      2.00000
     12      -5.8804      2.00000
     13      -5.1536      2.00000
     14      -1.2223      2.00000
     15       0.7645      2.00000
     16       1.5302      2.00000
     17       1.8318      2.00000
     18       2.7299      2.00000
     19       2.9285      2.00000
     20       3.3599      2.00000
     21       3.6308      2.00000
     22       4.0181      2.00000
     23       5.5093      2.00000
     24       5.8777      2.00000
     25       5.9448      2.00000
     26       6.6058      2.00000
     27       7.7355      0.00000
     28       8.0024      0.00000
     29       8.4337      0.00000
     30       8.8060      0.00000
     31       9.4433      0.00000
     32       9.5359      0.00000

 k-point     2 :      -0.2500    0.2500    0.0000
  band No.  band energies     occupation 
      1     -54.4310      2.00000
      2     -54.4089      2.00000
      3     -28.9947      2.00000
      4     -28.5623      2.00000
      5     -28.5574      2.00000
      6     -28.4776      2.00000
      7     -28.4077      2.00000
      8     -28.3553      2.00000
      9     -14.1988      2.00000
     10      -6.7074      2.00000
     11      -6.6059      2.00000
     12      -6.4880      2.00000
     13      -3.0541      2.00000
     14      -2.3623      2.00000
     15       0.8315      2.00000
     16       2.0573      2.00000
     17       2.4080      2.00000
     18       2.8194      2.00000
     19       2.9214      2.00000
     20       3.7409      2.00000
     21       4.0042      2.00000
     22       4.2441      2.00000
     23       5.6098      2.00000
     24       5.7522      2.00000
     25       5.8503      2.00000
     26       5.8844      2.00000
     27       7.2130      0.00000
     28       7.2508      0.00000
     29       7.7177      0.00000
     30       8.2657      0.00000
     31       9.1065      0.00000
     32       9.5850      0.00000


--------------------------------------------------------------------------------------------------------


 soft charge-density along one line, spin component           1
         0         1         2         3         4         5         6         7         8         9
 total charge-density along one line
 
 pseudopotential strength for first ion, spin component:           1
 -5.189  11.254   0.000  -0.043  -0.000  -0.000   0.063   0.000
 11.254   3.286  -0.000   0.048   0.000   0.000  -0.016  -0.000
  0.000  -0.000 -17.940   0.000  -0.000   8.735  -0.000   0.000
 -0.043   0.048   0.000 -17.955   0.000  -0.000   8.759  -0.000
 -0.000   0.000  -0.000   0.000 -17.940   0.000  -0.000   8.735
 -0.000   0.000   8.735  -0.000   0.000   5.866   0.000  -0.000
  0.063  -0.016  -0.000   8.759  -0.000   0.000   5.858   0.000
  0.000  -0.000   0.000  -0.000   8.735  -0.000   0.000   5.866
 -0.000   0.000  -0.000   0.000   0.005   0.000  -0.000  -0.003
  0.000  -0.000  -0.042   0.000   0.000   0.030  -0.000  -0.000
 -0.014   0.011  -0.000  -0.069   0.000   0.000   0.046  -0.000
  0.000  -0.000   0.000  -0.000  -0.042  -0.000   0.000   0.030
 -0.000   0.000   0.005  -0.000  -0.000  -0.003   0.000   0.000
 -0.000   0.000  -0.000   0.000   0.005   0.000  -0.000  -0.003
  0.000  -0.000  -0.043   0.000   0.000   0.031  -0.000  -0.000
 -0.014   0.012  -0.000  -0.071   0.000   0.000   0.048  -0.000
  0.000  -0.000   0.000  -0.000  -0.043  -0.000   0.000   0.031
 -0.000   0.000   0.005  -0.000  -0.000  -0.003   0.000   0.000
 total augmentation occupancy for first ion, spin component:           1
  1.998  -0.026   0.000   0.001   0.000   0.000   0.002  -0.000  -0.000   0.000  -0.033   0.000  -0.000  -0.000   0.000   0.033
 -0.026   1.203   0.000   0.018   0.000   0.000   0.008   0.000  -0.000   0.000  -0.979   0.000  -0.000   0.000   0.000   1.037
  0.000   0.000   2.000   0.000   0.000  -0.032   0.000  -0.000   0.000   0.009   0.000  -0.000   0.007  -0.000  -0.003   0.000
  0.001   0.018   0.000   2.002  -0.000   0.000  -0.033   0.000  -0.000   0.000  -0.027   0.000  -0.000  -0.000   0.000   0.021
  0.000   0.000   0.000  -0.000   2.000  -0.000  -0.000  -0.032   0.007   0.000  -0.000   0.009   0.000   0.001  -0.000  -0.000
  0.000   0.000  -0.032   0.000  -0.000   0.095   0.000  -0.000  -0.000  -0.014   0.000   0.000   0.177  -0.000   0.033  -0.000
  0.002   0.008   0.000  -0.033  -0.000   0.000   0.140  -0.000   0.000   0.000  -0.506   0.000  -0.000  -0.000   0.000   0.549
 -0.000   0.000  -0.000   0.000  -0.032  -0.000  -0.000   0.095   0.177   0.000  -0.000  -0.014  -0.000  -0.191   0.000   0.000
 -0.000  -0.000   0.000  -0.000   0.007  -0.000   0.000   0.177   2.938   0.000   0.000  -0.494   0.000  -3.390   0.000   0.000
  0.000   0.000   0.009   0.000   0.000  -0.014   0.000   0.000   0.000   6.216  -0.000  -0.000  -0.494  -0.000  -6.981   0.000
 -0.033  -0.979   0.000  -0.027  -0.000   0.000  -0.506  -0.000   0.000  -0.000   7.487   0.000   0.000  -0.000   0.000  -8.578
  0.000   0.000  -0.000   0.000   0.009   0.000   0.000  -0.014  -0.494  -0.000   0.000   6.216   0.000   0.246  -0.000   0.000
 -0.000  -0.000   0.007  -0.000   0.000   0.177  -0.000  -0.000   0.000  -0.494   0.000   0.000   2.938   0.000   0.250  -0.000
 -0.000   0.000  -0.000  -0.000   0.001  -0.000  -0.000  -0.191  -3.390  -0.000  -0.000   0.246   0.000   4.637  -0.000   0.000
  0.000   0.000  -0.003   0.000  -0.000   0.033   0.000   0.000   0.000  -6.981   0.000  -0.000   0.250  -0.000   8.514  -0.000
  0.033   1.037   0.000   0.021  -0.000  -0.000   0.549   0.000   0.000   0.000  -8.578   0.000  -0.000   0.000  -0.000  10.415
  0.000  -0.000  -0.000  -0.000  -0.003  -0.000  -0.000   0.033   0.250  -0.000  -0.000  -6.981  -0.000  -0.075  -0.000  -0.000
  0.000   0.000   0.001   0.000   0.000  -0.191   0.000   0.000  -0.000   0.246  -0.000  -0.000  -3.390  -0.000  -0.075   0.000


------------------------ aborting loop because EDIFF is reached ----------------------------------------


    CHARGE:  cpu time    0.0223: real time    0.0223
    FORLOC:  cpu time    0.0047: real time    0.0047
    FORNL :  cpu time    0.0356: real time    0.0356
    STRESS:  cpu time    0.0887: real time    0.0887
    FORCOR:  cpu time    0.0599: real time    0.0599
    FORHAR:  cpu time    0.0151: real time    0.0151
    MIXING:  cpu time    0.0034: real time    0.0034
    OFIELD:  cpu time    0.0000: real time    0.0000

  FORCE on cell =-STRESS in cart. coord.  units (eV):
  Direction    XX          YY          ZZ          XY          YZ          ZX
  --------------------------------------------------------------------------------------
  Alpha Z   160.27286   160.27286   160.27286
  Ewald     356.72525   356.72524 -3144.82050     0.00000     0.00000    -0.00000
  Hartree  1750.57453  1750.57453 -1229.07474     0.00000     0.00000    -0.00000
  E(xc)    -221.83214  -221.83214  -222.78084    -0.00000     0.00000     0.00000
  Local   -3115.45258 -3115.45254  3352.09644     0.00000    -0.00000    -0.00000
  n-local   230.94143   241.04333   244.48204    -0.00000    -0.77694    -0.00000
  augment    -1.30941    -1.30945    -3.61849     0.00000     0.00000    -0.00000
  Kinetic   842.44502   860.94557   851.73903     0.00000     4.80198    -0.00000
  Fock        0.00000     0.00000     0.00000     0.00000     0.00000     0.00000
  -------------------------------------------------------------------------------------
  Total      16.66618    16.66618     8.29580     0.00000     0.00000     0.00000
  in kB     226.16474   226.16474   112.57634     0.00000     0.00000     0.00000
  external pressure =      188.30 kB  Pullay stress =        0.00 kB


 VOLUME and BASIS-vectors are now :
 -----------------------------------------------------------------------------
  energy-cutoff  :      500.00
  volume of cell :      118.07
      direct lattice vectors                 reciprocal lattice vectors
     1.596118927 -2.764559076  0.000000000     0.313259865 -0.180860668  0.000000000
     1.596118927  2.764559076  0.000000000     0.313259865  0.180860668  0.000000000
     0.000000000  0.000000000 13.378293991     0.000000000  0.000000000  0.074747946

  length of vectors
     3.192237854  3.192237854 13.378293991     0.361721335  0.361721335  0.074747946


 FORCES acting on ions
    electron-ion (+dipol)            ewald-force                    non-local-force                 convergence-correction
 -----------------------------------------------------------------------------------------------
   0.223E-07 0.346E-05 0.425E+03   -.396E-13 0.503E-06 -.431E+03   0.694E-17 0.000E+00 0.426E+01   0.260E-13 0.103E-08 0.316E-02
   0.179E-07 -.345E-05 0.331E+03   -.118E-13 -.252E-06 -.322E+03   0.173E-17 -.607E-17 -.681E+01   -.391E-13 0.238E-11 -.312E-02
   -.203E-06 0.835E-06 -.643E+03   0.125E-13 0.519E-06 0.651E+03   0.278E-16 -.555E-16 0.599E+00   -.120E-13 -.559E-10 0.344E-02
   -.227E-07 -.613E-06 -.438E+03   -.141E-14 -.769E-06 0.436E+03   -.167E-15 0.000E+00 -.476E+01   0.213E-15 -.277E-08 0.256E-02
   -.969E-07 0.884E-06 -.246E+03   -.471E-14 0.253E-06 0.251E+03   -.139E-16 -.278E-16 -.651E+01   0.325E-14 -.629E-11 -.157E-02
   0.684E-07 -.894E-06 0.580E+03   0.152E-13 -.254E-06 -.585E+03   0.000E+00 0.000E+00 0.425E+01   -.207E-14 -.801E-09 -.733E-03
 -----------------------------------------------------------------------------------------------
   -.214E-06 0.228E-06 0.896E+01   -.299E-13 0.634E-14 -.114E-12   -.144E-15 -.893E-16 -.896E+01   -.237E-13 -.261E-08 0.375E-02
 
 
 POSITION                                       TOTAL-FORCE (eV/Angst)
 -----------------------------------------------------------------------------------
      1.59612     -0.92152      3.34457         0.000000      0.000000     -1.749905
      1.59612      0.92152     10.03372        -0.000000      0.000000      1.318949
      1.59612     -0.92152      5.45886        -0.000000      0.000000      9.366907
      1.59612      0.92152      4.90874         0.000000     -0.000000     -6.745473
      1.59612     -0.92152     11.59788        -0.000000      0.000000     -1.350992
      1.59612      0.92152      1.78041        -0.000000      0.000000     -0.839487
 -----------------------------------------------------------------------------------
    total drift:                               -0.000000      0.000000     -0.000025


--------------------------------------------------------------------------------------------------------



  FREE ENERGIE OF THE ION-ELECTRON SYSTEM (eV)
  ---------------------------------------------------
  free  energy   TOTEN  =       -32.57721349 eV

  energy  without entropy=      -32.57721349  energy(sigma->0) =      -32.57721349
 


--------------------------------------------------------------------------------------------------------


    POTLOK:  cpu time    0.0630: real time    0.0630


--------------------------------------------------------------------------------------------------------


 stress matrix after NEB project (eV)
     16.66618     -0.00000      0.00000
      0.00000     16.66618      0.00000
     -0.00000      0.00000      8.29580
  FORCES: max atom, RMS     9.366907    4.840318
  FORCE total and by dimension   11.856309    9.366907
  Stress total and by dimension   24.986870   16.666184
 writing wavefunctions
     LOOP+:  cpu time    4.7426: real time    4.8146
    4ORBIT:  cpu time    0.0000: real time    0.0000

 total amount of memory used by VASP MPI-rank0    37007. kBytes
=======================================================================

   base      :      30000. kBytes
   nonl-proj :        502. kBytes
   fftplans  :       2328. kBytes
   grid      :       3750. kBytes
   one-center:         31. kBytes
   wavefun   :        396. kBytes
 
  
  
 General timing and accounting informations for this job:
 ========================================================
  
                  Total CPU time used (sec):        6.367
                            User time (sec):        5.599
                          System time (sec):        0.768
                         Elapsed time (sec):        6.897
  
                   Maximum memory used (kb):      126484.
                   Average memory used (kb):          N/A
  
                          Minor page faults:        21492
                          Major page faults:            0
                 Voluntary context switches:          958
