 vasp.6.2.0 18Jan21 (build Jul 31 2023 14:19:35) complex                        
  
 executed on             LinuxIFC date 2025.09.17  14:45:03
 running on    8 total cores
 distrk:  each k-point on    8 cores,    1 groups
 distr:  one band on NCORE=   4 cores,    2 groups


--------------------------------------------------------------------------------------------------------


 INCAR:
   SYSTEM = MoS2_SinglePoint_vdW_Coulomb
   PREC = Accurate
   ENCUT = 500
   GGA = PE
   ALGO = Normal
   NELM = 100
   NELMIN = 5
   EDIFF = 1E-6
   ISMEAR = 0
   SIGMA = 0.05
   IBRION = -1
   NSW = 0
   LREAL = .FALSE.
   LCHARG = .TRUE.
   LWAVE = .TRUE.
   NWRITE = 1
   NCORE = 4

 POTCAR:    PAW_PBE Mo_sv 02Feb2006               
 POTCAR:    PAW_PBE S 06Sep2000                   
 POTCAR:    PAW_PBE Mo_sv 02Feb2006               
  local pseudopotential read in
  partial core-charges read in
  partial kinetic energy density read in
  atomic valenz-charges read in
  non local Contribution for L=           0  read in
    real space projection operators read in
  non local Contribution for L=           0  read in
    real space projection operators read in
  non local Contribution for L=           1  read in
    real space projection operators read in
  non local Contribution for L=           1  read in
    real space projection operators read in
  non local Contribution for L=           2  read in
    real space projection operators read in
  non local Contribution for L=           2  read in
    real space projection operators read in
    PAW grid and wavefunctions read in
 
   number of l-projection  operators is LMAX  =           6
   number of lm-projection operators is LMMAX =          18
 
 POTCAR:    PAW_PBE S 06Sep2000                   
  local pseudopotential read in
  partial core-charges read in
  partial kinetic energy density read in
  atomic valenz-charges read in
  non local Contribution for L=           0  read in
    real space projection operators read in
  non local Contribution for L=           0  read in
    real space projection operators read in
  non local Contribution for L=           1  read in
    real space projection operators read in
  non local Contribution for L=           1  read in
    real space projection operators read in
    PAW grid and wavefunctions read in
 
   number of l-projection  operators is LMAX  =           4
   number of lm-projection operators is LMMAX =           8
 
  PAW_PBE Mo_sv 02Feb2006               :
 energy of atom  1       EATOM=-1862.2866
 kinetic energy error for atom=    0.0074 (will be added to EATOM!!)
  PAW_PBE S 06Sep2000                   :
 energy of atom  2       EATOM= -276.8230
 kinetic energy error for atom=    0.0020 (will be added to EATOM!!)
 
 
 POSCAR: Mo S
  positions in direct lattice
  No initial velocities read in
 exchange correlation table for  LEXCH =        8
   RHO(1)=    0.500       N(1)  =     2000
   RHO(2)=  100.500       N(2)  =     4000

 VTST: version 4.0, (05/15/20)

 CHAIN: initializing optimizer
 
 OPT: Using VASP Dynamics algorithm
 CHAIN: Read ICHAIN            0
 
 POSCAR: Mo S
  positions in direct lattice
  No initial velocities read in
 


--------------------------------------------------------------------------------------------------------


 ion  position               nearest neighbor table
   1  0.667  0.333  0.250-   3 2.17   6 2.42   4 2.42   4 2.42   6 2.42   4 2.42   6 2.42
   2  0.333  0.667  0.750-   5 2.42   5 2.42   5 2.42
   3  0.667  0.333  0.412-   4 1.94   4 1.94   4 1.94   1 2.17
   4  0.333  0.667  0.367-   3 1.94   3 1.94   3 1.94   1 2.42   1 2.42   1 2.42
   5  0.667  0.333  0.867-   2 2.42   2 2.42   2 2.42
   6  0.333  0.667  0.133-   1 2.42   1 2.42   1 2.42
 
  LATTYP: Found a hexagonal cell.
 ALAT       =     3.1922378540
 C/A-ratio  =     4.1908825730
  
  Lattice vectors:
  
 A1 = (   1.5961189270,  -2.7645590765,   0.0000000000)
 A2 = (   1.5961189270,   2.7645590765,   0.0000000000)
 A3 = (   0.0000000000,   0.0000000000,  13.3782939911)


Analysis of symmetry for initial positions (statically):
=====================================================================
 Subroutine PRICEL returns:
 Original cell was already a primitive cell.
 

 Routine SETGRP: Setting up the symmetry group for a 
 hexagonal supercell.


 Subroutine GETGRP returns: Found  6 space group operations
 (whereof  6 operations were pure point group operations)
 out of a pool of 24 trial point group operations.


The static configuration has the point symmetry C_3v.


Analysis of symmetry for dynamics (positions and initial velocities):
=====================================================================
 Subroutine PRICEL returns:
 Original cell was already a primitive cell.
 

 Routine SETGRP: Setting up the symmetry group for a 
 hexagonal supercell.


 Subroutine GETGRP returns: Found  6 space group operations
 (whereof  6 operations were pure point group operations)
 out of a pool of 24 trial point group operations.


The dynamic configuration has the point symmetry C_3v.


 Subroutine INISYM returns: Found  6 space group operations
 (whereof  6 operations are pure point group operations),
 and found     1 'primitive' translations


----------------------------------------------------------------------------------------

                                     Primitive cell                                     

  volume of cell :     118.0652

  direct lattice vectors                    reciprocal lattice vectors
     1.596118927 -2.764559076  0.000000000     0.313259865 -0.180860668  0.000000000
     1.596118927  2.764559076  0.000000000     0.313259865  0.180860668  0.000000000
     0.000000000  0.000000000 13.378293991     0.000000000  0.000000000  0.074747946

  length of vectors
     3.192237854  3.192237854 13.378293991     0.361721335  0.361721335  0.074747946

  position of ions in fractional coordinates (direct lattice)
     0.666666667  0.333333333  0.250000000
     0.333333333  0.666666667  0.750000000
     0.666666667  0.333333333  0.412309826
     0.333333333  0.666666667  0.366918000
     0.666666667  0.333333333  0.866918000
     0.333333333  0.666666667  0.133082000

  ion indices of the primitive-cell ions
   primitive index   ion index
                 1           1
                 2           2
                 3           3
                 4           4
                 5           5
                 6           6

----------------------------------------------------------------------------------------

 
 
 KPOINTS: K-Spacing Value to Generate K-Mesh: 0.15

Automatic generation of k-mesh.
 Grid dimensions read from file:
 generate k-points for:    2    2    1

 Generating k-lattice:

  Cartesian coordinates                     Fractional coordinates (reciprocal lattice)
     0.156629933 -0.090430334  0.000000000     0.500000000  0.000000000  0.000000000
     0.156629933  0.090430334  0.000000000     0.000000000  0.500000000  0.000000000
     0.000000000  0.000000000  0.074747946     0.000000000  0.000000000  1.000000000

  Length of vectors
     0.180860668  0.180860668  0.074747946

  Shift w.r.t. Gamma in fractional coordinates (k-lattice)
     0.500000000  0.500000000  0.000000000

 
 Subroutine IBZKPT returns following result:
 ===========================================
 
 Found      2 irreducible k-points:
 
 Following reciprocal coordinates:
            Coordinates               Weight
  0.250000  0.250000  0.000000      6.000000
 -0.250000  0.250000  0.000000      6.000000
 
 Following cartesian coordinates:
            Coordinates               Weight
  0.156630  0.000000  0.000000      6.000000
  0.000000  0.090430  0.000000      6.000000
 


--------------------------------------------------------------------------------------------------------




 Dimension of arrays:
   k-points           NKPTS =      2   k-points in BZ     NKDIM =      2   number of bands    NBANDS=     32
   number of dos      NEDOS =    301   number of ions     NIONS =      6
   non local maximal  LDIM  =      6   non local SUM 2l+1 LMDIM =     18
   total plane-waves  NPLWV =  56448
   max r-space proj   IRMAX =      1   max aug-charges    IRDMAX=  21106
   dimension x,y,z NGX =    24 NGY =   24 NGZ =   98
   dimension x,y,z NGXF=    48 NGYF=   48 NGZF=  196
   support grid    NGXF=    48 NGYF=   48 NGZF=  196
   ions per type =               2   4
   NGX,Y,Z   is equivalent  to a cutoff of  12.50, 12.50, 12.18 a.u.
   NGXF,Y,Z  is equivalent  to a cutoff of  25.00, 25.00, 24.36 a.u.

 SYSTEM =  MoS2_SinglePoint_vdW_Coulomb           
 POSCAR =  Mo S                                    

 Startparameter for this run:
   NWRITE =      1    write-flag & timer
   PREC   = accura    normal or accurate (medium, high low for compatibility)
   ISTART =      0    job   : 0-new  1-cont  2-samecut
   ICHARG =      2    charge: 1-file 2-atom 10-const
   ISPIN  =      1    spin polarized calculation?
   LNONCOLLINEAR =      F non collinear calculations
   LSORBIT =      F    spin-orbit coupling
   INIWAV =      1    electr: 0-lowe 1-rand  2-diag
   LASPH  =      F    aspherical Exc in radial PAW
   METAGGA=      F    non-selfconsistent MetaGGA calc.

 Electronic Relaxation 1
   ENCUT  =  500.0 eV  36.75 Ry    6.06 a.u.   5.82  5.82 24.39*2*pi/ulx,y,z
   ENINI  =  500.0     initial cutoff
   ENAUG  =  446.0 eV  augmentation charge cutoff
   NELM   =    100;   NELMIN=  5; NELMDL= -5     # of ELM steps 
   EDIFF  = 0.1E-05   stopping-criterion for ELM
   LREAL  =      F    real-space projection
   NLSPLINE    = F    spline interpolate recip. space projectors
   LCOMPAT=      F    compatible to vasp.4.4
   GGA_COMPAT  = T    GGA compatible to vasp.4.4-vasp.4.6
   LMAXPAW     = -100 max onsite density
   LMAXMIX     =    2 max onsite mixed and CHGCAR
   VOSKOWN=      0    Vosko Wilk Nusair interpolation
   ROPT   =    0.00000   0.00000
 Ionic relaxation
   EDIFFG = 0.1E-04   stopping-criterion for IOM
   NSW    =      0    number of steps for IOM
   NBLOCK =      1;   KBLOCK =      1    inner block; outer block 
   IBRION =     -1    ionic relax: 0-MD 1-quasi-New 2-CG
   NFREE  =      0    steps in history (QN), initial steepest desc. (CG)
   ISIF   =      2    stress and relaxation
   IWAVPR =     10    prediction:  0-non 1-charg 2-wave 3-comb
   ISYM   =      2    0-nonsym 1-usesym 2-fastsym
   LCORR  =      T    Harris-Foulkes like correction to forces

   POTIM  = 0.5000    time-step for ionic-motion
   TEIN   =    0.0    initial temperature
   TEBEG  =    0.0;   TEEND  =   0.0 temperature during run
   SMASS  =  -3.00    Nose mass-parameter (am)
   estimated Nose-frequenzy (Omega)   =  0.10E-29 period in steps = 0.13E+47 mass=  -0.233E-27a.u.
   SCALEE = 1.0000    scale energy and forces
   NPACO  =    256;   APACO  = 16.0  distance and # of slots for P.C.
   PSTRESS=    0.0 pullay stress

  Mass of Ions in am
   POMASS =  95.94 32.07
  Ionic Valenz
   ZVAL   =  14.00  6.00
  Atomic Wigner-Seitz radii
   RWIGS  =  -1.00 -1.00
  virtual crystal weights 
   VCA    =   1.00  1.00
   NELECT =      52.0000    total number of electrons
   NUPDOWN=      -1.0000    fix difference up-down

 DOS related values:
   EMIN   =  10.00;   EMAX   =-10.00  energy-range for DOS
   EFERMI =   0.00
   ISMEAR =     0;   SIGMA  =   0.05  broadening in eV -4-tet -1-fermi 0-gaus

 Electronic relaxation 2 (details)
   IALGO  =     38    algorithm
   LDIAG  =      T    sub-space diagonalisation (order eigenvalues)
   LSUBROT=      F    optimize rotation matrix (better conditioning)
   TURBO    =      0    0=normal 1=particle mesh
   IRESTART =      0    0=no restart 2=restart with 2 vectors
   NREBOOT  =      0    no. of reboots
   NMIN     =      0    reboot dimension
   EREF     =   0.00    reference energy to select bands
   IMIX   =      4    mixing-type and parameters
     AMIX     =   0.40;   BMIX     =  1.00
     AMIX_MAG =   1.60;   BMIX_MAG =  1.00
     AMIN     =   0.10
     WC   =   100.;   INIMIX=   1;  MIXPRE=   1;  MAXMIX= -45

 Intra band minimization:
   WEIMIN = 0.0000     energy-eigenvalue tresh-hold
   EBREAK =  0.78E-08  absolut break condition
   DEPER  =   0.30     relativ break condition  

   TIME   =   0.40     timestep for ELM

  volume/ion in A,a.u.               =      19.68       132.79
  Fermi-wavevector in a.u.,A,eV,Ry     =   1.245571  2.353789 21.108736  1.551448
  Thomas-Fermi vector in A             =   2.379788
 
 Write flags
   LWAVE        =      T    write WAVECAR
   LDOWNSAMPLE  =      F    k-point downsampling of WAVECAR
   LCHARG       =      T    write CHGCAR
   LVTOT        =      F    write LOCPOT, total local potential
   LVHAR        =      F    write LOCPOT, Hartree potential only
   LELF         =      F    write electronic localiz. function (ELF)
   LORBIT       =      0    0 simple, 1 ext, 2 COOP (PROOUT), +10 PAW based schemes


 Dipole corrections
   LMONO  =      F    monopole corrections only (constant potential shift)
   LDIPOL =      F    correct potential (dipole corrections)
   IDIPOL =      0    1-x, 2-y, 3-z, 4-all directions 
   EPSILON=  1.0000000 bulk dielectric constant

 Exchange correlation treatment:
   GGA     =    PE    GGA type
   LEXCH   =     8    internal setting for exchange type
   VOSKOWN=      0    Vosko Wilk Nusair interpolation
   LHFCALC =     F    Hartree Fock is set to
   LHFONE  =     F    Hartree Fock one center treatment
   AEXX    =    0.0000 exact exchange contribution

 Linear response parameters
   LEPSILON=     F    determine dielectric tensor
   LRPA    =     F    only Hartree local field effects (RPA)
   LNABLA  =     F    use nabla operator in PAW spheres
   LVEL    =     F    velocity operator in full k-point grid
   LINTERFAST=   F  fast interpolation
   KINTER  =     0    interpolate to denser k-point grid
   CSHIFT  =0.1000    complex shift for real part using Kramers Kronig
   OMEGAMAX=  -1.0    maximum frequency
   DEG_THRESHOLD= 0.2000000E-02 threshold for treating states as degnerate
   RTIME   =   -0.100 relaxation time in fs
  (WPLASMAI=    0.000 imaginary part of plasma frequency in eV, 0.658/RTIME)
   DFIELD  = 0.0000000 0.0000000 0.0000000 field for delta impulse in time
 
 Orbital magnetization related:
   ORBITALMAG=     F  switch on orbital magnetization
   LCHIMAG   =     F  perturbation theory with respect to B field
   DQ        =  0.001000  dq finite difference perturbation B field
   LLRAUG    =     F  two centre corrections for induced B field



--------------------------------------------------------------------------------------------------------


 Static calculation
 charge density and potential will be updated during run
 non-spin polarized calculation
 Variant of blocked Davidson
 Davidson routine will perform the subspace rotation
 perform sub-space diagonalisation
    after iterative eigenvector-optimisation
 modified Broyden-mixing scheme, WC =      100.0
 initial mixing is a Kerker type mixing with AMIX =  0.4000 and BMIX =      1.0000
 Hartree-type preconditioning will be used
 using additional bands            6
 reciprocal scheme for non local part
 use partial core corrections
 calculate Harris-corrections to forces 
   (improved forces if not selfconsistent)
 use gradient corrections 
 use of overlap-Matrix (Vanderbilt PP)
 Gauss-broadening in eV      SIGMA  =   0.05


--------------------------------------------------------------------------------------------------------


  energy-cutoff  :      500.00
  volume of cell :      118.07
      direct lattice vectors                 reciprocal lattice vectors
     1.596118927 -2.764559076  0.000000000     0.313259865 -0.180860668  0.000000000
     1.596118927  2.764559076  0.000000000     0.313259865  0.180860668  0.000000000
     0.000000000  0.000000000 13.378293991     0.000000000  0.000000000  0.074747946

  length of vectors
     3.192237854  3.192237854 13.378293991     0.361721335  0.361721335  0.074747946


 
 k-points in units of 2pi/SCALE and weight: K-Spacing Value to Generate K-Mesh: 0.15
   0.15662993  0.00000000  0.00000000       0.500
   0.00000000  0.09043033  0.00000000       0.500
 
 k-points in reciprocal lattice and weights: K-Spacing Value to Generate K-Mesh: 0.15
   0.25000000  0.25000000  0.00000000       0.500
  -0.25000000  0.25000000  0.00000000       0.500
 
 position of ions in fractional coordinates (direct lattice) 
   0.66666667  0.33333333  0.25000000
   0.33333333  0.66666667  0.75000000
   0.66666667  0.33333333  0.41230983
   0.33333333  0.66666667  0.36691800
   0.66666667  0.33333333  0.86691800
   0.33333333  0.66666667  0.13308200
 
 position of ions in cartesian coordinates  (Angst):
   1.59611893 -0.92151969  3.34457350
   1.59611893  0.92151969 10.03372049
   1.59611893 -0.92151969  5.51600207
   1.59611893  0.92151969  4.90873687
   1.59611893 -0.92151969 11.59788387
   1.59611893  0.92151969  1.78041012
 


--------------------------------------------------------------------------------------------------------


 k-point   1 :   0.2500 0.2500 0.0000  plane waves:    3020
 k-point   2 :  -0.2500 0.2500 0.0000  plane waves:    2992

 maximum and minimum number of plane-waves per node :       768      742

 maximum number of plane-waves:      3020
 maximum index in each direction: 
   IXMAX=    6   IYMAX=    5   IZMAX=   24
   IXMIN=   -6   IYMIN=   -6   IZMIN=  -24


 parallel 3D FFT for wavefunctions:
    minimum data exchange during FFTs selected (reduces bandwidth)
 parallel 3D FFT for charge:
    minimum data exchange during FFTs selected (reduces bandwidth)


 total amount of memory used by VASP MPI-rank0    37007. kBytes
=======================================================================

   base      :      30000. kBytes
   nonl-proj :        502. kBytes
   fftplans  :       2328. kBytes
   grid      :       3750. kBytes
   one-center:         31. kBytes
   wavefun   :        396. kBytes
 
     INWAV:  cpu time    0.0000: real time    0.0001
 Broyden mixing: mesh for mixing (old mesh)
   NGX = 11   NGY = 11   NGZ = 49
  (NGX  = 48   NGY  = 48   NGZ  =196)
  gives a total of   5929 points

 initial charge density was supplied:
 charge density of overlapping atoms calculated
 number of electron      52.0000000 magnetization 
 keeping initial charge density in first step


--------------------------------------------------------------------------------------------------------


 Maximum index for augmentation-charges         2591 (set IRDMAX)


--------------------------------------------------------------------------------------------------------


 First call to EWALD:  gamma=   0.361
 Maximum number of real-space cells 4x 4x 1
 Maximum number of reciprocal cells 2x 2x 7

    FEWALD:  cpu time    0.0020: real time    0.0020


--------------------------------------- Iteration      1(   1)  ---------------------------------------


    POTLOK:  cpu time    0.0584: real time    0.0595
    SETDIJ:  cpu time    0.0055: real time    0.0055
     EDDAV:  cpu time    0.1340: real time    0.1342
       DOS:  cpu time    0.0003: real time    0.0003
    --------------------------------------------
      LOOP:  cpu time    0.1983: real time    0.1996

 eigenvalue-minimisations  :   144
 total energy-change (2. order) : 0.4537191E+03  (-0.2920596E+04)
 number of electron      52.0000000 magnetization 
 augmentation part       52.0000000 magnetization 

 Free energy of the ion-electron system (eV)
  ---------------------------------------------------
  alpha Z        PSCENC =       160.27286088
  Ewald energy   TEWEN  =     -2468.19434208
  -Hartree energ DENC   =     -2253.09019960
  -exchange      EXHF   =         0.00000000
  -V(xc)+E(xc)   XCENC  =       185.11245626
  PAW double counting   =      3865.57804258    -3815.84821480
  entropy T*S    EENTRO =        -0.00038618
  eigenvalues    EBANDS =       -51.95379074
  atomic energy  EATOM  =      4831.84262874
  Solvation  Ediel_sol  =         0.00000000
  ---------------------------------------------------
  free energy    TOTEN  =       453.71905507 eV

  energy without entropy =      453.71944125  energy(sigma->0) =      453.71924816


--------------------------------------------------------------------------------------------------------




--------------------------------------- Iteration      1(   2)  ---------------------------------------


     EDDAV:  cpu time    0.1400: real time    0.1421
       DOS:  cpu time    0.0003: real time    0.0003
    --------------------------------------------
      LOOP:  cpu time    0.1404: real time    0.1425

 eigenvalue-minimisations  :   160
 total energy-change (2. order) :-0.4637893E+03  (-0.4532412E+03)
 number of electron      52.0000000 magnetization 
 augmentation part       52.0000000 magnetization 

 Free energy of the ion-electron system (eV)
  ---------------------------------------------------
  alpha Z        PSCENC =       160.27286088
  Ewald energy   TEWEN  =     -2468.19434208
  -Hartree energ DENC   =     -2253.09019960
  -exchange      EXHF   =         0.00000000
  -V(xc)+E(xc)   XCENC  =       185.11245626
  PAW double counting   =      3865.57804258    -3815.84821480
  entropy T*S    EENTRO =        -0.00524285
  eigenvalues    EBANDS =      -515.73827024
  atomic energy  EATOM  =      4831.84262874
  Solvation  Ediel_sol  =         0.00000000
  ---------------------------------------------------
  free energy    TOTEN  =       -10.07028110 eV

  energy without entropy =      -10.06503825  energy(sigma->0) =      -10.06765967


--------------------------------------------------------------------------------------------------------




--------------------------------------- Iteration      1(   3)  ---------------------------------------


     EDDAV:  cpu time    0.1458: real time    0.1494
       DOS:  cpu time    0.0001: real time    0.0001
    --------------------------------------------
      LOOP:  cpu time    0.1459: real time    0.1495

 eigenvalue-minimisations  :   168
 total energy-change (2. order) :-0.2482495E+02  (-0.2351219E+02)
 number of electron      52.0000000 magnetization 
 augmentation part       52.0000000 magnetization 

 Free energy of the ion-electron system (eV)
  ---------------------------------------------------
  alpha Z        PSCENC =       160.27286088
  Ewald energy   TEWEN  =     -2468.19434208
  -Hartree energ DENC   =     -2253.09019960
  -exchange      EXHF   =         0.00000000
  -V(xc)+E(xc)   XCENC  =       185.11245626
  PAW double counting   =      3865.57804258    -3815.84821480
  entropy T*S    EENTRO =        -0.00000000
  eigenvalues    EBANDS =      -540.56846330
  atomic energy  EATOM  =      4831.84262874
  Solvation  Ediel_sol  =         0.00000000
  ---------------------------------------------------
  free energy    TOTEN  =       -34.89523131 eV

  energy without entropy =      -34.89523131  energy(sigma->0) =      -34.89523131


--------------------------------------------------------------------------------------------------------




--------------------------------------- Iteration      1(   4)  ---------------------------------------


     EDDAV:  cpu time    0.1506: real time    0.1546
       DOS:  cpu time    0.0001: real time    0.0001
    --------------------------------------------
      LOOP:  cpu time    0.1507: real time    0.1547

 eigenvalue-minimisations  :   176
 total energy-change (2. order) :-0.6103333E+00  (-0.6069163E+00)
 number of electron      52.0000000 magnetization 
 augmentation part       52.0000000 magnetization 

 Free energy of the ion-electron system (eV)
  ---------------------------------------------------
  alpha Z        PSCENC =       160.27286088
  Ewald energy   TEWEN  =     -2468.19434208
  -Hartree energ DENC   =     -2253.09019960
  -exchange      EXHF   =         0.00000000
  -V(xc)+E(xc)   XCENC  =       185.11245626
  PAW double counting   =      3865.57804258    -3815.84821480
  entropy T*S    EENTRO =        -0.00000000
  eigenvalues    EBANDS =      -541.17879661
  atomic energy  EATOM  =      4831.84262874
  Solvation  Ediel_sol  =         0.00000000
  ---------------------------------------------------
  free energy    TOTEN  =       -35.50556462 eV

  energy without entropy =      -35.50556462  energy(sigma->0) =      -35.50556462


--------------------------------------------------------------------------------------------------------




--------------------------------------- Iteration      1(   5)  ---------------------------------------


     EDDAV:  cpu time    0.1448: real time    0.1490
       DOS:  cpu time    0.0003: real time    0.0003
    CHARGE:  cpu time    0.0226: real time    0.0226
    MIXING:  cpu time    0.0014: real time    0.0014
    --------------------------------------------
      LOOP:  cpu time    0.1690: real time    0.1732

 eigenvalue-minimisations  :   168
 total energy-change (2. order) :-0.1046078E-01  (-0.1045341E-01)
 number of electron      51.9999992 magnetization 
 augmentation part        0.9898703 magnetization 

 Broyden mixing:
  rms(total) = 0.52067E+01    rms(broyden)= 0.52067E+01
  rms(prec ) = 0.52640E+01
  weight for this iteration     100.00

 Free energy of the ion-electron system (eV)
  ---------------------------------------------------
  alpha Z        PSCENC =       160.27286088
  Ewald energy   TEWEN  =     -2468.19434208
  -Hartree energ DENC   =     -2253.09019960
  -exchange      EXHF   =         0.00000000
  -V(xc)+E(xc)   XCENC  =       185.11245626
  PAW double counting   =      3865.57804258    -3815.84821480
  entropy T*S    EENTRO =        -0.00000000
  eigenvalues    EBANDS =      -541.18925738
  atomic energy  EATOM  =      4831.84262874
  Solvation  Ediel_sol  =         0.00000000
  ---------------------------------------------------
  free energy    TOTEN  =       -35.51602539 eV

  energy without entropy =      -35.51602539  energy(sigma->0) =      -35.51602539


--------------------------------------------------------------------------------------------------------




--------------------------------------- Iteration      1(   6)  ---------------------------------------


    POTLOK:  cpu time    0.0552: real time    0.0591
    SETDIJ:  cpu time    0.0052: real time    0.0052
     EDDAV:  cpu time    0.1226: real time    0.1227
       DOS:  cpu time    0.0003: real time    0.0003
    CHARGE:  cpu time    0.0223: real time    0.0223
    MIXING:  cpu time    0.0014: real time    0.0014
    --------------------------------------------
      LOOP:  cpu time    0.2071: real time    0.2111

 eigenvalue-minimisations  :   136
 total energy-change (2. order) : 0.1916502E+01  (-0.1448193E+01)
 number of electron      51.9999991 magnetization 
 augmentation part        1.9823503 magnetization 

 Broyden mixing:
  rms(total) = 0.23134E+01    rms(broyden)= 0.23134E+01
  rms(prec ) = 0.24814E+01
  weight for this iteration     100.00

 eigenvalues of (default mixing * dielectric matrix)
  average eigenvalue GAMMA=   1.5571
  1.5571

 Free energy of the ion-electron system (eV)
  ---------------------------------------------------
  alpha Z        PSCENC =       160.27286088
  Ewald energy   TEWEN  =     -2468.19434208
  -Hartree energ DENC   =     -2219.88103607
  -exchange      EXHF   =         0.00000000
  -V(xc)+E(xc)   XCENC  =       183.86042429
  PAW double counting   =      5373.86853695    -5329.26348297
  entropy T*S    EENTRO =        -0.02423372
  eigenvalues    EBANDS =      -566.08087964
  atomic energy  EATOM  =      4831.84262874
  Solvation  Ediel_sol  =         0.00000000
  ---------------------------------------------------
  free energy    TOTEN  =       -33.59952362 eV

  energy without entropy =      -33.57528990  energy(sigma->0) =      -33.58740676


--------------------------------------------------------------------------------------------------------




--------------------------------------- Iteration      1(   7)  ---------------------------------------


    POTLOK:  cpu time    0.0575: real time    0.0615
    SETDIJ:  cpu time    0.0052: real time    0.0052
     EDDAV:  cpu time    0.1443: real time    0.1443
       DOS:  cpu time    0.0003: real time    0.0003
    CHARGE:  cpu time    0.0222: real time    0.0222
    MIXING:  cpu time    0.0014: real time    0.0014
    --------------------------------------------
      LOOP:  cpu time    0.2309: real time    0.2350

 eigenvalue-minimisations  :   168
 total energy-change (2. order) :-0.1130433E+02  (-0.7573525E+01)
 number of electron      51.9999993 magnetization 
 augmentation part        0.8849856 magnetization 

 Broyden mixing:
  rms(total) = 0.32461E+01    rms(broyden)= 0.32461E+01
  rms(prec ) = 0.53881E+01
  weight for this iteration     100.00

 eigenvalues of (default mixing * dielectric matrix)
  average eigenvalue GAMMA=   1.1783
  2.0311  0.3255

 Free energy of the ion-electron system (eV)
  ---------------------------------------------------
  alpha Z        PSCENC =       160.27286088
  Ewald energy   TEWEN  =     -2468.19434208
  -Hartree energ DENC   =     -2253.52750592
  -exchange      EXHF   =         0.00000000
  -V(xc)+E(xc)   XCENC  =       184.88708500
  PAW double counting   =      7078.40424077    -7031.66572237
  entropy T*S    EENTRO =        -0.02820109
  eigenvalues    EBANDS =      -546.89489948
  atomic energy  EATOM  =      4831.84262874
  Solvation  Ediel_sol  =         0.00000000
  ---------------------------------------------------
  free energy    TOTEN  =       -44.90385554 eV

  energy without entropy =      -44.87565445  energy(sigma->0) =      -44.88975499


--------------------------------------------------------------------------------------------------------




--------------------------------------- Iteration      1(   8)  ---------------------------------------


    POTLOK:  cpu time    0.0570: real time    0.0610
    SETDIJ:  cpu time    0.0063: real time    0.0063
     EDDAV:  cpu time    0.1465: real time    0.1468
       DOS:  cpu time    0.0002: real time    0.0002
    CHARGE:  cpu time    0.0221: real time    0.0221
    MIXING:  cpu time    0.0015: real time    0.0015
    --------------------------------------------
      LOOP:  cpu time    0.2336: real time    0.2378

 eigenvalue-minimisations  :   168
 total energy-change (2. order) : 0.1076175E+02  (-0.9387992E+01)
 number of electron      51.9999993 magnetization 
 augmentation part        1.0211915 magnetization 

 Broyden mixing:
  rms(total) = 0.13889E+01    rms(broyden)= 0.13889E+01
  rms(prec ) = 0.15285E+01
  weight for this iteration     100.00

 eigenvalues of (default mixing * dielectric matrix)
  average eigenvalue GAMMA=   1.0366
  2.2755  0.5533  0.2811

 Free energy of the ion-electron system (eV)
  ---------------------------------------------------
  alpha Z        PSCENC =       160.27286088
  Ewald energy   TEWEN  =     -2468.19434208
  -Hartree energ DENC   =     -2264.71676576
  -exchange      EXHF   =         0.00000000
  -V(xc)+E(xc)   XCENC  =       184.84624748
  PAW double counting   =      7859.10250205    -7813.06499506
  entropy T*S    EENTRO =        -0.00000000
  eigenvalues    EBANDS =      -524.23024137
  atomic energy  EATOM  =      4831.84262874
  Solvation  Ediel_sol  =         0.00000000
  ---------------------------------------------------
  free energy    TOTEN  =       -34.14210511 eV

  energy without entropy =      -34.14210511  energy(sigma->0) =      -34.14210511


--------------------------------------------------------------------------------------------------------




--------------------------------------- Iteration      1(   9)  ---------------------------------------


    POTLOK:  cpu time    0.0570: real time    0.0586
    SETDIJ:  cpu time    0.0052: real time    0.0052
     EDDAV:  cpu time    0.1391: real time    0.1391
       DOS:  cpu time    0.0002: real time    0.0002
    CHARGE:  cpu time    0.0219: real time    0.0219
    MIXING:  cpu time    0.0015: real time    0.0015
    --------------------------------------------
      LOOP:  cpu time    0.2248: real time    0.2264

 eigenvalue-minimisations  :   160
 total energy-change (2. order) : 0.8704917E+00  (-0.7453965E+00)
 number of electron      51.9999991 magnetization 
 augmentation part        1.6221984 magnetization 

 Broyden mixing:
  rms(total) = 0.34564E+00    rms(broyden)= 0.34563E+00
  rms(prec ) = 0.52189E+00
  weight for this iteration     100.00

 eigenvalues of (default mixing * dielectric matrix)
  average eigenvalue GAMMA=   0.9838
  2.2567  0.9073  0.5377  0.2335

 Free energy of the ion-electron system (eV)
  ---------------------------------------------------
  alpha Z        PSCENC =       160.27286088
  Ewald energy   TEWEN  =     -2468.19434208
  -Hartree energ DENC   =     -2237.27203205
  -exchange      EXHF   =         0.00000000
  -V(xc)+E(xc)   XCENC  =       184.21243359
  PAW double counting   =      8725.00412131    -8681.43077524
  entropy T*S    EENTRO =        -0.00000000
  eigenvalues    EBANDS =      -547.70650860
  atomic energy  EATOM  =      4831.84262874
  Solvation  Ediel_sol  =         0.00000000
  ---------------------------------------------------
  free energy    TOTEN  =       -33.27161345 eV

  energy without entropy =      -33.27161345  energy(sigma->0) =      -33.27161345


--------------------------------------------------------------------------------------------------------




--------------------------------------- Iteration      1(  10)  ---------------------------------------


    POTLOK:  cpu time    0.0553: real time    0.0590
    SETDIJ:  cpu time    0.0052: real time    0.0052
     EDDAV:  cpu time    0.1438: real time    0.1438
       DOS:  cpu time    0.0001: real time    0.0001
    CHARGE:  cpu time    0.0219: real time    0.0219
    MIXING:  cpu time    0.0015: real time    0.0015
    --------------------------------------------
      LOOP:  cpu time    0.2278: real time    0.2316

 eigenvalue-minimisations  :   168
 total energy-change (2. order) : 0.1669608E+00  (-0.1859521E+00)
 number of electron      51.9999992 magnetization 
 augmentation part        1.5256886 magnetization 

 Broyden mixing:
  rms(total) = 0.32558E+00    rms(broyden)= 0.32558E+00
  rms(prec ) = 0.35440E+00
  weight for this iteration     100.00

 eigenvalues of (default mixing * dielectric matrix)
  average eigenvalue GAMMA=   0.9668
  2.4081  1.2981  0.5634  0.2614  0.3031

 Free energy of the ion-electron system (eV)
  ---------------------------------------------------
  alpha Z        PSCENC =       160.27286088
  Ewald energy   TEWEN  =     -2468.19434208
  -Hartree energ DENC   =     -2237.21382670
  -exchange      EXHF   =         0.00000000
  -V(xc)+E(xc)   XCENC  =       184.20257050
  PAW double counting   =      8797.00437253    -8753.37249438
  entropy T*S    EENTRO =        -0.00000000
  eigenvalues    EBANDS =      -547.64642217
  atomic energy  EATOM  =      4831.84262874
  Solvation  Ediel_sol  =         0.00000000
  ---------------------------------------------------
  free energy    TOTEN  =       -33.10465268 eV

  energy without entropy =      -33.10465268  energy(sigma->0) =      -33.10465268


--------------------------------------------------------------------------------------------------------




--------------------------------------- Iteration      1(  11)  ---------------------------------------


    POTLOK:  cpu time    0.0551: real time    0.0592
    SETDIJ:  cpu time    0.0053: real time    0.0052
     EDDAV:  cpu time    0.1518: real time    0.1519
       DOS:  cpu time    0.0001: real time    0.0001
    CHARGE:  cpu time    0.0219: real time    0.0219
    MIXING:  cpu time    0.0015: real time    0.0015
    --------------------------------------------
      LOOP:  cpu time    0.2357: real time    0.2399

 eigenvalue-minimisations  :   176
 total energy-change (2. order) : 0.1535477E-01  (-0.1891747E-01)
 number of electron      51.9999992 magnetization 
 augmentation part        1.5840016 magnetization 

 Broyden mixing:
  rms(total) = 0.17618E+00    rms(broyden)= 0.17618E+00
  rms(prec ) = 0.18681E+00
  weight for this iteration     100.00

 eigenvalues of (default mixing * dielectric matrix)
  average eigenvalue GAMMA=   1.0580
  2.3635  1.5524  1.1026  0.2441  0.6319  0.4536

 Free energy of the ion-electron system (eV)
  ---------------------------------------------------
  alpha Z        PSCENC =       160.27286088
  Ewald energy   TEWEN  =     -2468.19434208
  -Hartree energ DENC   =     -2233.77951355
  -exchange      EXHF   =         0.00000000
  -V(xc)+E(xc)   XCENC  =       184.12720732
  PAW double counting   =      9000.04238015    -8956.68266991
  entropy T*S    EENTRO =        -0.00000000
  eigenvalues    EBANDS =      -550.71784946
  atomic energy  EATOM  =      4831.84262874
  Solvation  Ediel_sol  =         0.00000000
  ---------------------------------------------------
  free energy    TOTEN  =       -33.08929791 eV

  energy without entropy =      -33.08929791  energy(sigma->0) =      -33.08929791


--------------------------------------------------------------------------------------------------------




--------------------------------------- Iteration      1(  12)  ---------------------------------------


    POTLOK:  cpu time    0.0552: real time    0.0590
    SETDIJ:  cpu time    0.0053: real time    0.0053
     EDDAV:  cpu time    0.1287: real time    0.1287
       DOS:  cpu time    0.0002: real time    0.0002
    CHARGE:  cpu time    0.0219: real time    0.0219
    MIXING:  cpu time    0.0016: real time    0.0016
    --------------------------------------------
      LOOP:  cpu time    0.2129: real time    0.2167

 eigenvalue-minimisations  :   144
 total energy-change (2. order) : 0.1939978E-02  (-0.5990575E-02)
 number of electron      51.9999992 magnetization 
 augmentation part        1.5518114 magnetization 

 Broyden mixing:
  rms(total) = 0.75288E-01    rms(broyden)= 0.75287E-01
  rms(prec ) = 0.90547E-01
  weight for this iteration     100.00

 eigenvalues of (default mixing * dielectric matrix)
  average eigenvalue GAMMA=   1.1224
  2.3077  2.3077  0.9704  0.9704  0.6418  0.2448  0.4141

 Free energy of the ion-electron system (eV)
  ---------------------------------------------------
  alpha Z        PSCENC =       160.27286088
  Ewald energy   TEWEN  =     -2468.19434208
  -Hartree energ DENC   =     -2235.96857473
  -exchange      EXHF   =         0.00000000
  -V(xc)+E(xc)   XCENC  =       184.17602644
  PAW double counting   =      9023.21454837    -8979.71211660
  entropy T*S    EENTRO =        -0.00000000
  eigenvalues    EBANDS =      -548.71838895
  atomic energy  EATOM  =      4831.84262874
  Solvation  Ediel_sol  =         0.00000000
  ---------------------------------------------------
  free energy    TOTEN  =       -33.08735793 eV

  energy without entropy =      -33.08735793  energy(sigma->0) =      -33.08735793


--------------------------------------------------------------------------------------------------------




--------------------------------------- Iteration      1(  13)  ---------------------------------------


    POTLOK:  cpu time    0.0551: real time    0.0588
    SETDIJ:  cpu time    0.0053: real time    0.0053
     EDDAV:  cpu time    0.1442: real time    0.1442
       DOS:  cpu time    0.0001: real time    0.0001
    CHARGE:  cpu time    0.0219: real time    0.0219
    MIXING:  cpu time    0.0016: real time    0.0016
    --------------------------------------------
      LOOP:  cpu time    0.2282: real time    0.2320

 eigenvalue-minimisations  :   168
 total energy-change (2. order) : 0.2261159E-02  (-0.9917643E-03)
 number of electron      51.9999992 magnetization 
 augmentation part        1.5688200 magnetization 

 Broyden mixing:
  rms(total) = 0.40769E-01    rms(broyden)= 0.40769E-01
  rms(prec ) = 0.56319E-01
  weight for this iteration     100.00

 eigenvalues of (default mixing * dielectric matrix)
  average eigenvalue GAMMA=   1.1712
  2.5145  2.5145  1.1253  0.9530  0.9530  0.2447  0.6461  0.4184

 Free energy of the ion-electron system (eV)
  ---------------------------------------------------
  alpha Z        PSCENC =       160.27286088
  Ewald energy   TEWEN  =     -2468.19434208
  -Hartree energ DENC   =     -2235.20496422
  -exchange      EXHF   =         0.00000000
  -V(xc)+E(xc)   XCENC  =       184.15646765
  PAW double counting   =      8909.73968864    -8866.24204769
  entropy T*S    EENTRO =        -0.00000000
  eigenvalues    EBANDS =      -549.45538870
  atomic energy  EATOM  =      4831.84262874
  Solvation  Ediel_sol  =         0.00000000
  ---------------------------------------------------
  free energy    TOTEN  =       -33.08509677 eV

  energy without entropy =      -33.08509677  energy(sigma->0) =      -33.08509677


--------------------------------------------------------------------------------------------------------




--------------------------------------- Iteration      1(  14)  ---------------------------------------


    POTLOK:  cpu time    0.0551: real time    0.0589
    SETDIJ:  cpu time    0.0053: real time    0.0053
     EDDAV:  cpu time    0.1437: real time    0.1439
       DOS:  cpu time    0.0001: real time    0.0001
    CHARGE:  cpu time    0.0218: real time    0.0218
    MIXING:  cpu time    0.0017: real time    0.0017
    --------------------------------------------
      LOOP:  cpu time    0.2278: real time    0.2318

 eigenvalue-minimisations  :   168
 total energy-change (2. order) : 0.1680054E-02  (-0.2380689E-03)
 number of electron      51.9999992 magnetization 
 augmentation part        1.5762906 magnetization 

 Broyden mixing:
  rms(total) = 0.13676E-01    rms(broyden)= 0.13676E-01
  rms(prec ) = 0.35700E-01
  weight for this iteration     100.00

 eigenvalues of (default mixing * dielectric matrix)
  average eigenvalue GAMMA=   1.1716
  2.4723  2.4723  1.4178  0.2447  1.1656  0.4180  0.6340  0.8599  0.8599

 Free energy of the ion-electron system (eV)
  ---------------------------------------------------
  alpha Z        PSCENC =       160.27286088
  Ewald energy   TEWEN  =     -2468.19434208
  -Hartree energ DENC   =     -2235.28807865
  -exchange      EXHF   =         0.00000000
  -V(xc)+E(xc)   XCENC  =       184.15534806
  PAW double counting   =      8941.04289435    -8897.57443724
  entropy T*S    EENTRO =        -0.00000000
  eigenvalues    EBANDS =      -549.34029078
  atomic energy  EATOM  =      4831.84262874
  Solvation  Ediel_sol  =         0.00000000
  ---------------------------------------------------
  free energy    TOTEN  =       -33.08341671 eV

  energy without entropy =      -33.08341671  energy(sigma->0) =      -33.08341671


--------------------------------------------------------------------------------------------------------




--------------------------------------- Iteration      1(  15)  ---------------------------------------


    POTLOK:  cpu time    0.0550: real time    0.0587
    SETDIJ:  cpu time    0.0054: real time    0.0054
     EDDAV:  cpu time    0.1471: real time    0.1472
       DOS:  cpu time    0.0002: real time    0.0002
    CHARGE:  cpu time    0.0218: real time    0.0219
    MIXING:  cpu time    0.0018: real time    0.0018
    --------------------------------------------
      LOOP:  cpu time    0.2312: real time    0.2350

 eigenvalue-minimisations  :   168
 total energy-change (2. order) : 0.1071486E-02  (-0.3360314E-04)
 number of electron      51.9999992 magnetization 
 augmentation part        1.5759024 magnetization 

 Broyden mixing:
  rms(total) = 0.11315E-01    rms(broyden)= 0.11315E-01
  rms(prec ) = 0.32510E-01
  weight for this iteration     100.00

 eigenvalues of (default mixing * dielectric matrix)
  average eigenvalue GAMMA=   1.1879
  2.5052  2.5052  1.7318  0.2447  1.0708  1.0708  0.4181  0.8455  0.8455  0.6417

 Free energy of the ion-electron system (eV)
  ---------------------------------------------------
  alpha Z        PSCENC =       160.27286088
  Ewald energy   TEWEN  =     -2468.19434208
  -Hartree energ DENC   =     -2235.49811090
  -exchange      EXHF   =         0.00000000
  -V(xc)+E(xc)   XCENC  =       184.16046296
  PAW double counting   =      8937.10068553    -8893.62385683
  entropy T*S    EENTRO =        -0.00000000
  eigenvalues    EBANDS =      -549.14267353
  atomic energy  EATOM  =      4831.84262874
  Solvation  Ediel_sol  =         0.00000000
  ---------------------------------------------------
  free energy    TOTEN  =       -33.08234523 eV

  energy without entropy =      -33.08234523  energy(sigma->0) =      -33.08234523


--------------------------------------------------------------------------------------------------------




--------------------------------------- Iteration      1(  16)  ---------------------------------------


    POTLOK:  cpu time    0.0550: real time    0.0579
    SETDIJ:  cpu time    0.0053: real time    0.0053
     EDDAV:  cpu time    0.1388: real time    0.1388
       DOS:  cpu time    0.0002: real time    0.0002
    CHARGE:  cpu time    0.0219: real time    0.0219
    MIXING:  cpu time    0.0018: real time    0.0018
    --------------------------------------------
      LOOP:  cpu time    0.2230: real time    0.2259

 eigenvalue-minimisations  :   160
 total energy-change (2. order) : 0.1648288E-02  (-0.6942462E-04)
 number of electron      51.9999992 magnetization 
 augmentation part        1.5760187 magnetization 

 Broyden mixing:
  rms(total) = 0.89458E-02    rms(broyden)= 0.89458E-02
  rms(prec ) = 0.27504E-01
  weight for this iteration     100.00

 eigenvalues of (default mixing * dielectric matrix)
  average eigenvalue GAMMA=   1.3242
  2.9183  2.9183  2.0995  1.4261  0.2447  1.2689  0.4181  0.9563  0.8381  0.8381
  0.6393

 Free energy of the ion-electron system (eV)
  ---------------------------------------------------
  alpha Z        PSCENC =       160.27286088
  Ewald energy   TEWEN  =     -2468.19434208
  -Hartree energ DENC   =     -2235.82059081
  -exchange      EXHF   =         0.00000000
  -V(xc)+E(xc)   XCENC  =       184.16712790
  PAW double counting   =      8933.87502535    -8890.38936159
  entropy T*S    EENTRO =        -0.00000000
  eigenvalues    EBANDS =      -548.83404533
  atomic energy  EATOM  =      4831.84262874
  Solvation  Ediel_sol  =         0.00000000
  ---------------------------------------------------
  free energy    TOTEN  =       -33.08069694 eV

  energy without entropy =      -33.08069694  energy(sigma->0) =      -33.08069694


--------------------------------------------------------------------------------------------------------




--------------------------------------- Iteration      1(  17)  ---------------------------------------


    POTLOK:  cpu time    0.0550: real time    0.0572
    SETDIJ:  cpu time    0.0054: real time    0.0054
     EDDAV:  cpu time    0.1443: real time    0.1443
       DOS:  cpu time    0.0001: real time    0.0001
    CHARGE:  cpu time    0.0219: real time    0.0219
    MIXING:  cpu time    0.0018: real time    0.0018
    --------------------------------------------
      LOOP:  cpu time    0.2285: real time    0.2307

 eigenvalue-minimisations  :   168
 total energy-change (2. order) : 0.2140449E-02  (-0.1871903E-03)
 number of electron      51.9999992 magnetization 
 augmentation part        1.5763853 magnetization 

 Broyden mixing:
  rms(total) = 0.86006E-02    rms(broyden)= 0.86006E-02
  rms(prec ) = 0.20384E-01
  weight for this iteration     100.00

 eigenvalues of (default mixing * dielectric matrix)
  average eigenvalue GAMMA=   1.3500
  3.0326  3.0326  2.2675  1.6759  0.2447  0.4181  0.6399  1.0606  1.0354  1.0354
  0.8783  0.8783

 Free energy of the ion-electron system (eV)
  ---------------------------------------------------
  alpha Z        PSCENC =       160.27286088
  Ewald energy   TEWEN  =     -2468.19434208
  -Hartree energ DENC   =     -2236.27205965
  -exchange      EXHF   =         0.00000000
  -V(xc)+E(xc)   XCENC  =       184.17618541
  PAW double counting   =      8932.31633594    -8888.82045151
  entropy T*S    EENTRO =        -0.00000000
  eigenvalues    EBANDS =      -548.39971423
  atomic energy  EATOM  =      4831.84262874
  Solvation  Ediel_sol  =         0.00000000
  ---------------------------------------------------
  free energy    TOTEN  =       -33.07855649 eV

  energy without entropy =      -33.07855649  energy(sigma->0) =      -33.07855649


--------------------------------------------------------------------------------------------------------




--------------------------------------- Iteration      1(  18)  ---------------------------------------


    POTLOK:  cpu time    0.0550: real time    0.0587
    SETDIJ:  cpu time    0.0053: real time    0.0053
     EDDAV:  cpu time    0.1388: real time    0.1388
       DOS:  cpu time    0.0001: real time    0.0001
    CHARGE:  cpu time    0.0219: real time    0.0219
    MIXING:  cpu time    0.0019: real time    0.0019
    --------------------------------------------
      LOOP:  cpu time    0.2230: real time    0.2268

 eigenvalue-minimisations  :   160
 total energy-change (2. order) : 0.6523248E-03  (-0.7338398E-04)
 number of electron      51.9999992 magnetization 
 augmentation part        1.5761775 magnetization 

 Broyden mixing:
  rms(total) = 0.71455E-02    rms(broyden)= 0.71455E-02
  rms(prec ) = 0.16622E-01
  weight for this iteration     100.00

 eigenvalues of (default mixing * dielectric matrix)
  average eigenvalue GAMMA=   1.2813
  3.1238  3.1238  2.2770  1.6744  0.2447  1.0591  1.0591  1.0692  0.4181  0.8788
  0.8788  0.6398  0.2100

 Free energy of the ion-electron system (eV)
  ---------------------------------------------------
  alpha Z        PSCENC =       160.27286088
  Ewald energy   TEWEN  =     -2468.19434208
  -Hartree energ DENC   =     -2236.45785638
  -exchange      EXHF   =         0.00000000
  -V(xc)+E(xc)   XCENC  =       184.17950587
  PAW double counting   =      8933.55254914    -8890.05248516
  entropy T*S    EENTRO =        -0.00000000
  eigenvalues    EBANDS =      -548.22076518
  atomic energy  EATOM  =      4831.84262874
  Solvation  Ediel_sol  =         0.00000000
  ---------------------------------------------------
  free energy    TOTEN  =       -33.07790417 eV

  energy without entropy =      -33.07790417  energy(sigma->0) =      -33.07790417


--------------------------------------------------------------------------------------------------------




--------------------------------------- Iteration      1(  19)  ---------------------------------------


    POTLOK:  cpu time    0.0551: real time    0.0588
    SETDIJ:  cpu time    0.0054: real time    0.0054
     EDDAV:  cpu time    0.1341: real time    0.1343
       DOS:  cpu time    0.0002: real time    0.0002
    CHARGE:  cpu time    0.0223: real time    0.0223
    MIXING:  cpu time    0.0021: real time    0.0021
    --------------------------------------------
      LOOP:  cpu time    0.2190: real time    0.2229

 eigenvalue-minimisations  :   144
 total energy-change (2. order) : 0.2740286E-03  (-0.1730014E-04)
 number of electron      51.9999992 magnetization 
 augmentation part        1.5761265 magnetization 

 Broyden mixing:
  rms(total) = 0.62992E-02    rms(broyden)= 0.62992E-02
  rms(prec ) = 0.14782E-01
  weight for this iteration     100.00

 eigenvalues of (default mixing * dielectric matrix)
  average eigenvalue GAMMA=   1.2444
  3.2123  3.2123  2.2822  1.6644  1.0967  1.0967  1.0762  0.8735  0.8735  0.6398
  0.2447  0.4181  0.3653  0.3653

 Free energy of the ion-electron system (eV)
  ---------------------------------------------------
  alpha Z        PSCENC =       160.27286088
  Ewald energy   TEWEN  =     -2468.19434208
  -Hartree energ DENC   =     -2236.55078992
  -exchange      EXHF   =         0.00000000
  -V(xc)+E(xc)   XCENC  =       184.18103306
  PAW double counting   =      8933.27757042    -8889.77530507
  entropy T*S    EENTRO =        -0.00000000
  eigenvalues    EBANDS =      -548.13128617
  atomic energy  EATOM  =      4831.84262874
  Solvation  Ediel_sol  =         0.00000000
  ---------------------------------------------------
  free energy    TOTEN  =       -33.07763014 eV

  energy without entropy =      -33.07763014  energy(sigma->0) =      -33.07763014


--------------------------------------------------------------------------------------------------------




--------------------------------------- Iteration      1(  20)  ---------------------------------------


    POTLOK:  cpu time    0.0574: real time    0.0606
    SETDIJ:  cpu time    0.0054: real time    0.0054
     EDDAV:  cpu time    0.1447: real time    0.1448
       DOS:  cpu time    0.0001: real time    0.0001
    CHARGE:  cpu time    0.0219: real time    0.0219
    MIXING:  cpu time    0.0020: real time    0.0020
    --------------------------------------------
      LOOP:  cpu time    0.2317: real time    0.2349

 eigenvalue-minimisations  :   168
 total energy-change (2. order) : 0.2244111E-03  (-0.6541596E-05)
 number of electron      51.9999992 magnetization 
 augmentation part        1.5762028 magnetization 

 Broyden mixing:
  rms(total) = 0.63595E-02    rms(broyden)= 0.63595E-02
  rms(prec ) = 0.13591E-01
  weight for this iteration     100.00

 eigenvalues of (default mixing * dielectric matrix)
  average eigenvalue GAMMA=   1.3920
  3.8619  3.6033  2.2761  1.2494  1.2494  1.3148  1.3148  1.1368  1.1368  0.2447
  0.4181  0.8451  0.8451  0.6400  0.7432

 Free energy of the ion-electron system (eV)
  ---------------------------------------------------
  alpha Z        PSCENC =       160.27286088
  Ewald energy   TEWEN  =     -2468.19434208
  -Hartree energ DENC   =     -2236.63163906
  -exchange      EXHF   =         0.00000000
  -V(xc)+E(xc)   XCENC  =       184.18248315
  PAW double counting   =      8932.55182670    -8889.04767058
  entropy T*S    EENTRO =        -0.00000000
  eigenvalues    EBANDS =      -548.05355347
  atomic energy  EATOM  =      4831.84262874
  Solvation  Ediel_sol  =         0.00000000
  ---------------------------------------------------
  free energy    TOTEN  =       -33.07740573 eV

  energy without entropy =      -33.07740573  energy(sigma->0) =      -33.07740573


--------------------------------------------------------------------------------------------------------




--------------------------------------- Iteration      1(  21)  ---------------------------------------


    POTLOK:  cpu time    0.0551: real time    0.0584
    SETDIJ:  cpu time    0.0054: real time    0.0054
     EDDAV:  cpu time    0.1441: real time    0.1442
       DOS:  cpu time    0.0002: real time    0.0002
    CHARGE:  cpu time    0.0224: real time    0.0224
    MIXING:  cpu time    0.0021: real time    0.0021
    --------------------------------------------
      LOOP:  cpu time    0.2292: real time    0.2325

 eigenvalue-minimisations  :   168
 total energy-change (2. order) : 0.6970044E-03  (-0.1186809E-03)
 number of electron      51.9999992 magnetization 
 augmentation part        1.5766368 magnetization 

 Broyden mixing:
  rms(total) = 0.67576E-02    rms(broyden)= 0.67576E-02
  rms(prec ) = 0.90231E-02
  weight for this iteration     100.00

 eigenvalues of (default mixing * dielectric matrix)
  average eigenvalue GAMMA=   1.7083
  9.0615  2.6846  2.6846  2.5360  1.4289  1.4289  0.2447  0.4181  1.0608  1.0608
  0.6399  0.8430  0.8430  0.8175  0.7900  0.7900

 Free energy of the ion-electron system (eV)
  ---------------------------------------------------
  alpha Z        PSCENC =       160.27286088
  Ewald energy   TEWEN  =     -2468.19434208
  -Hartree energ DENC   =     -2236.99780740
  -exchange      EXHF   =         0.00000000
  -V(xc)+E(xc)   XCENC  =       184.18887893
  PAW double counting   =      8929.14952217    -8885.63740360
  entropy T*S    EENTRO =        -0.00000000
  eigenvalues    EBANDS =      -547.70104637
  atomic energy  EATOM  =      4831.84262874
  Solvation  Ediel_sol  =         0.00000000
  ---------------------------------------------------
  free energy    TOTEN  =       -33.07670872 eV

  energy without entropy =      -33.07670872  energy(sigma->0) =      -33.07670872


--------------------------------------------------------------------------------------------------------




--------------------------------------- Iteration      1(  22)  ---------------------------------------


    POTLOK:  cpu time    0.0551: real time    0.0585
    SETDIJ:  cpu time    0.0054: real time    0.0054
     EDDAV:  cpu time    0.1440: real time    0.1440
       DOS:  cpu time    0.0002: real time    0.0002
    CHARGE:  cpu time    0.0222: real time    0.0222
    MIXING:  cpu time    0.0022: real time    0.0022
    --------------------------------------------
      LOOP:  cpu time    0.2290: real time    0.2323

 eigenvalue-minimisations  :   168
 total energy-change (2. order) : 0.1846632E-03  (-0.9252121E-04)
 number of electron      51.9999992 magnetization 
 augmentation part        1.5775036 magnetization 

 Broyden mixing:
  rms(total) = 0.42733E-02    rms(broyden)= 0.42733E-02
  rms(prec ) = 0.43832E-02
  weight for this iteration     100.00

 eigenvalues of (default mixing * dielectric matrix)
  average eigenvalue GAMMA=   1.6572
  9.2928  2.7376  2.7376  2.4210  1.6173  0.7921  0.7921  0.2447  1.0986  1.0986
  1.1009  0.9605  0.8541  0.8541  0.4181  0.6401  0.5125

 Free energy of the ion-electron system (eV)
  ---------------------------------------------------
  alpha Z        PSCENC =       160.27286088
  Ewald energy   TEWEN  =     -2468.19434208
  -Hartree energ DENC   =     -2237.22898786
  -exchange      EXHF   =         0.00000000
  -V(xc)+E(xc)   XCENC  =       184.19171125
  PAW double counting   =      8929.97497455    -8886.46095897
  entropy T*S    EENTRO =        -0.00000000
  eigenvalues    EBANDS =      -547.47441057
  atomic energy  EATOM  =      4831.84262874
  Solvation  Ediel_sol  =         0.00000000
  ---------------------------------------------------
  free energy    TOTEN  =       -33.07652406 eV

  energy without entropy =      -33.07652406  energy(sigma->0) =      -33.07652406


--------------------------------------------------------------------------------------------------------




--------------------------------------- Iteration      1(  23)  ---------------------------------------


    POTLOK:  cpu time    0.0550: real time    0.0588
    SETDIJ:  cpu time    0.0054: real time    0.0054
     EDDAV:  cpu time    0.1232: real time    0.1232
       DOS:  cpu time    0.0002: real time    0.0002
    CHARGE:  cpu time    0.0222: real time    0.0222
    MIXING:  cpu time    0.0022: real time    0.0022
    --------------------------------------------
      LOOP:  cpu time    0.2082: real time    0.2120

 eigenvalue-minimisations  :   136
 total energy-change (2. order) :-0.1111945E-04  (-0.1418553E-04)
 number of electron      51.9999992 magnetization 
 augmentation part        1.5776629 magnetization 

 Broyden mixing:
  rms(total) = 0.23393E-02    rms(broyden)= 0.23393E-02
  rms(prec ) = 0.23968E-02
  weight for this iteration     100.00

 eigenvalues of (default mixing * dielectric matrix)
  average eigenvalue GAMMA=   1.5653
  9.2888  2.7386  2.7386  2.4199  1.6168  0.7925  0.7925  0.2447  1.0975  1.0975
  1.1017  0.9609  0.8541  0.8541  0.4181  0.6401  0.5145  0.0051

 Free energy of the ion-electron system (eV)
  ---------------------------------------------------
  alpha Z        PSCENC =       160.27286088
  Ewald energy   TEWEN  =     -2468.19434208
  -Hartree energ DENC   =     -2237.23900362
  -exchange      EXHF   =         0.00000000
  -V(xc)+E(xc)   XCENC  =       184.19155876
  PAW double counting   =      8930.81278253    -8887.29907447
  entropy T*S    EENTRO =        -0.00000000
  eigenvalues    EBANDS =      -547.46394592
  atomic energy  EATOM  =      4831.84262874
  Solvation  Ediel_sol  =         0.00000000
  ---------------------------------------------------
  free energy    TOTEN  =       -33.07653518 eV

  energy without entropy =      -33.07653518  energy(sigma->0) =      -33.07653518


--------------------------------------------------------------------------------------------------------




--------------------------------------- Iteration      1(  24)  ---------------------------------------


    POTLOK:  cpu time    0.0550: real time    0.0582
    SETDIJ:  cpu time    0.0053: real time    0.0053
     EDDAV:  cpu time    0.1364: real time    0.1365
       DOS:  cpu time    0.0002: real time    0.0002
    --------------------------------------------
      LOOP:  cpu time    0.1970: real time    0.2002

 eigenvalue-minimisations  :   152
 total energy-change (2. order) :-0.2309816E-06  (-0.4581710E-06)
 number of electron      51.9999992 magnetization 
 augmentation part        1.5776629 magnetization 

 Free energy of the ion-electron system (eV)
  ---------------------------------------------------
  alpha Z        PSCENC =       160.27286088
  Ewald energy   TEWEN  =     -2468.19434208
  -Hartree energ DENC   =     -2237.24200974
  -exchange      EXHF   =         0.00000000
  -V(xc)+E(xc)   XCENC  =       184.19159558
  PAW double counting   =      8930.75057259    -8887.23677129
  entropy T*S    EENTRO =        -0.00000000
  eigenvalues    EBANDS =      -547.46107009
  atomic energy  EATOM  =      4831.84262874
  Solvation  Ediel_sol  =         0.00000000
  ---------------------------------------------------
  free energy    TOTEN  =       -33.07653541 eV

  energy without entropy =      -33.07653541  energy(sigma->0) =      -33.07653541


--------------------------------------------------------------------------------------------------------




 average (electrostatic) potential at core
  the test charge radii are     1.0818  0.9698
  (the norm of the test charge is              1.0000)
       1 -75.0617       2 -75.2185       3 -87.4299       4 -87.9949       5 -85.3129
       6 -84.9982
 
 
 
 E-fermi :   6.9770     XC(G=0):  -9.9563     alpha+bet :-12.2268

 Fermi energy:         6.9770320423

 k-point     1 :       0.2500    0.2500    0.0000
  band No.  band energies     occupation 
      1     -54.4016      2.00000
      2     -54.3874      2.00000
      3     -28.8933      2.00000
      4     -28.6674      2.00000
      5     -28.5670      2.00000
      6     -28.5182      2.00000
      7     -28.5167      2.00000
      8     -28.4427      2.00000
      9     -12.3349      2.00000
     10      -9.1302      2.00000
     11      -5.9102      2.00000
     12      -5.8627      2.00000
     13      -4.9257      2.00000
     14      -1.2834      2.00000
     15       0.7462      2.00000
     16       1.5422      2.00000
     17       1.8141      2.00000
     18       2.7376      2.00000
     19       2.9338      2.00000
     20       3.3734      2.00000
     21       3.6410      2.00000
     22       4.0953      2.00000
     23       5.5215      2.00000
     24       5.8876      2.00000
     25       5.9318      2.00000
     26       6.7492      2.00000
     27       7.7441      0.00000
     28       8.0369      0.00000
     29       8.4464      0.00000
     30       8.8131      0.00000
     31       9.4390      0.00000
     32       9.5048      0.00000

 k-point     2 :      -0.2500    0.2500    0.0000
  band No.  band energies     occupation 
      1     -54.4182      2.00000
      2     -54.4061      2.00000
      3     -28.9381      2.00000
      4     -28.5500      2.00000
      5     -28.5487      2.00000
      6     -28.4653      2.00000
      7     -28.4010      2.00000
      8     -28.3430      2.00000
      9     -14.0609      2.00000
     10      -6.6736      2.00000
     11      -6.5761      2.00000
     12      -6.3710      2.00000
     13      -2.7852      2.00000
     14      -2.4135      2.00000
     15       0.9142      2.00000
     16       2.0756      2.00000
     17       2.4620      2.00000
     18       2.8045      2.00000
     19       2.8902      2.00000
     20       3.7732      2.00000
     21       4.0418      2.00000
     22       4.2573      2.00000
     23       5.6237      2.00000
     24       5.8076      2.00000
     25       5.8092      2.00000
     26       5.8981      2.00000
     27       7.2252      0.00000
     28       7.2505      0.00000
     29       7.7921      0.00000
     30       8.4324      0.00000
     31       8.9864      0.00000
     32       9.5317      0.00000


--------------------------------------------------------------------------------------------------------


 soft charge-density along one line, spin component           1
         0         1         2         3         4         5         6         7         8         9
 total charge-density along one line
 
 pseudopotential strength for first ion, spin component:           1
 -5.185  11.256   0.000  -0.038  -0.000  -0.000   0.052   0.000
 11.256   3.284  -0.000   0.039   0.000   0.000  -0.013  -0.000
  0.000  -0.000 -17.943  -0.000   0.000   8.738   0.000  -0.000
 -0.038   0.039  -0.000 -17.962   0.000   0.000   8.765  -0.000
 -0.000   0.000   0.000   0.000 -17.943  -0.000  -0.000   8.738
 -0.000   0.000   8.738   0.000  -0.000   5.863  -0.000   0.000
  0.052  -0.013   0.000   8.765  -0.000  -0.000   5.853   0.000
  0.000  -0.000  -0.000  -0.000   8.738   0.000   0.000   5.863
  0.000  -0.000  -0.000   0.000   0.005   0.000  -0.000  -0.003
 -0.000   0.000  -0.036   0.000   0.000   0.025  -0.000  -0.000
 -0.016   0.012  -0.000  -0.056   0.000   0.000   0.037  -0.000
  0.000  -0.000   0.000  -0.000  -0.036  -0.000   0.000   0.025
 -0.000   0.000   0.005   0.000  -0.000  -0.003  -0.000   0.000
  0.000  -0.000  -0.000   0.000   0.006   0.000  -0.000  -0.003
 -0.000   0.000  -0.037   0.000   0.000   0.026  -0.000  -0.000
 -0.016   0.013  -0.000  -0.057   0.000   0.000   0.038  -0.000
  0.000  -0.000   0.000  -0.000  -0.037  -0.000   0.000   0.026
 -0.000   0.000   0.006   0.000  -0.000  -0.003  -0.000   0.000
 total augmentation occupancy for first ion, spin component:           1
  1.997  -0.028   0.000   0.001  -0.000   0.000   0.002   0.000  -0.000   0.000  -0.018  -0.000  -0.000  -0.000   0.000   0.018
 -0.028   1.184   0.000   0.018   0.000   0.000  -0.005   0.000   0.000   0.000  -0.842   0.000  -0.000  -0.000   0.000   0.878
  0.000   0.000   2.000   0.000   0.000  -0.033   0.000  -0.000  -0.000   0.002   0.000  -0.000   0.007   0.000   0.003   0.000
  0.001   0.018   0.000   2.002   0.000   0.000  -0.035  -0.000   0.000   0.000  -0.019   0.000  -0.000  -0.000   0.000   0.016
 -0.000   0.000   0.000   0.000   2.000  -0.000  -0.000  -0.033   0.007   0.000  -0.000   0.002   0.000   0.000   0.000  -0.000
  0.000   0.000  -0.033   0.000   0.000   0.095   0.000   0.000  -0.000  -0.007   0.000   0.000   0.176  -0.000   0.024  -0.000
  0.002  -0.005   0.000  -0.035  -0.000   0.000   0.133   0.000   0.000   0.000  -0.430  -0.000  -0.000  -0.000   0.000   0.457
  0.000   0.000   0.000   0.000  -0.033   0.000   0.000   0.095   0.176   0.000   0.000  -0.007  -0.000  -0.190   0.000   0.000
 -0.000   0.000   0.000   0.000   0.007  -0.000   0.000   0.176   2.920  -0.000   0.000  -0.494   0.000  -3.347   0.000  -0.000
  0.000   0.000   0.002   0.000   0.000  -0.007   0.000   0.000  -0.000   5.959  -0.000  -0.000  -0.494  -0.000  -6.717   0.000
 -0.018  -0.842   0.000  -0.019   0.000   0.000  -0.430   0.000   0.000  -0.000   6.674   0.000   0.000  -0.000   0.000  -7.616
 -0.000   0.000   0.000   0.000   0.002   0.000  -0.000  -0.007  -0.494   0.000   0.000   5.959   0.000   0.246  -0.000   0.000
 -0.000  -0.000   0.007  -0.000   0.000   0.176  -0.000  -0.000   0.000  -0.494   0.000   0.000   2.920  -0.000   0.251  -0.000
 -0.000  -0.000   0.000  -0.000   0.000  -0.000  -0.000  -0.190  -3.347  -0.000  -0.000   0.246  -0.000   4.580   0.000  -0.000
  0.000   0.000   0.003   0.000  -0.000   0.024   0.000   0.000  -0.000  -6.717   0.000  -0.000   0.251   0.000   8.233  -0.000
  0.018   0.878   0.000   0.016   0.000  -0.000   0.457   0.000  -0.000   0.000  -7.616   0.000  -0.000  -0.000  -0.000   9.303
  0.000   0.000  -0.000   0.000   0.003  -0.000   0.000   0.024   0.251   0.000  -0.000  -6.717   0.000  -0.078   0.000   0.000
  0.000   0.000   0.000   0.000   0.000  -0.190   0.000  -0.000  -0.000   0.246  -0.000  -0.000  -3.347  -0.000  -0.078   0.000


------------------------ aborting loop because EDIFF is reached ----------------------------------------


    CHARGE:  cpu time    0.0222: real time    0.0222
    FORLOC:  cpu time    0.0046: real time    0.0046
    FORNL :  cpu time    0.0357: real time    0.0357
    STRESS:  cpu time    0.0888: real time    0.0888
    FORCOR:  cpu time    0.0590: real time    0.0590
    FORHAR:  cpu time    0.0147: real time    0.0147
    MIXING:  cpu time    0.0023: real time    0.0023
    OFIELD:  cpu time    0.0000: real time    0.0000

  FORCE on cell =-STRESS in cart. coord.  units (eV):
  Direction    XX          YY          ZZ          XY          YZ          ZX
  --------------------------------------------------------------------------------------
  Alpha Z   160.27286   160.27286   160.27286
  Ewald     321.24750   321.24749 -3110.69284     0.00000     0.00000    -0.00000
  Hartree  1718.05587  1718.05587 -1198.86300     0.00000     0.00000    -0.00000
  E(xc)    -221.55668  -221.55668  -222.50241     0.00000    -0.00000    -0.00000
  Local   -3047.39183 -3047.39179  3289.26398     0.00000    -0.00000    -0.00000
  n-local   230.68039   241.04050   243.49513     0.00000    -0.59900     0.00000
  augment    -1.40146    -1.40150    -3.53176    -0.00000    -0.00000     0.00000
  Kinetic   842.65845   858.64234   848.48379     0.00000     5.14556    -0.00000
  Fock        0.00000     0.00000     0.00000     0.00000     0.00000     0.00000
  -------------------------------------------------------------------------------------
  Total      15.73710    15.73710     5.92576    -0.00000     0.00000    -0.00000
  in kB     213.55678   213.55678    80.41415    -0.00000     0.00000    -0.00000
  external pressure =      169.18 kB  Pullay stress =        0.00 kB


 VOLUME and BASIS-vectors are now :
 -----------------------------------------------------------------------------
  energy-cutoff  :      500.00
  volume of cell :      118.07
      direct lattice vectors                 reciprocal lattice vectors
     1.596118927 -2.764559076  0.000000000     0.313259865 -0.180860668  0.000000000
     1.596118927  2.764559076  0.000000000     0.313259865  0.180860668  0.000000000
     0.000000000  0.000000000 13.378293991     0.000000000  0.000000000  0.074747946

  length of vectors
     3.192237854  3.192237854 13.378293991     0.361721335  0.361721335  0.074747946


 FORCES acting on ions
    electron-ion (+dipol)            ewald-force                    non-local-force                 convergence-correction
 -----------------------------------------------------------------------------------------------
   0.607E-08 0.344E-05 0.414E+03   -.474E-13 0.503E-06 -.419E+03   -.139E-16 0.416E-16 0.443E+01   -.115E-12 0.334E-08 -.937E-02
   0.174E-07 -.344E-05 0.323E+03   -.114E-13 -.252E-06 -.315E+03   0.867E-18 0.260E-17 -.679E+01   0.135E-12 0.113E-07 0.211E-01
   -.169E-06 0.806E-06 -.629E+03   0.216E-14 0.490E-06 0.637E+03   0.555E-16 0.000E+00 -.605E+00   -.344E-13 0.222E-07 -.139E-02
   -.473E-07 -.595E-06 -.426E+03   0.154E-13 -.740E-06 0.424E+03   0.111E-15 0.000E+00 -.466E+01   -.915E-14 0.163E-08 0.105E-02
   -.925E-07 0.884E-06 -.249E+03   -.471E-14 0.253E-06 0.254E+03   -.278E-16 -.555E-16 -.651E+01   -.401E-13 0.215E-07 -.211E-03
   0.696E-07 -.894E-06 0.577E+03   0.160E-13 -.254E-06 -.582E+03   0.000E+00 0.000E+00 0.436E+01   0.486E-13 0.217E-07 -.306E-02
 -----------------------------------------------------------------------------------------------
   -.215E-06 0.201E-06 0.977E+01   -.299E-13 0.634E-14 0.000E+00   0.126E-15 -.113E-16 -.978E+01   -.151E-13 0.816E-07 0.809E-02
 
 
 POSITION                                       TOTAL-FORCE (eV/Angst)
 -----------------------------------------------------------------------------------
      1.59612     -0.92152      3.34457        -0.000000      0.000000     -0.493945
      1.59612      0.92152     10.03372         0.000000      0.000000      1.311957
      1.59612     -0.92152      5.51600        -0.000000      0.000000      8.140215
      1.59612      0.92152      4.90874         0.000000     -0.000000     -6.825146
      1.59612     -0.92152     11.59788         0.000000     -0.000000     -1.346526
      1.59612      0.92152      1.78041        -0.000000      0.000000     -0.786555
 -----------------------------------------------------------------------------------
    total drift:                               -0.000000      0.000000     -0.001604


--------------------------------------------------------------------------------------------------------



  FREE ENERGIE OF THE ION-ELECTRON SYSTEM (eV)
  ---------------------------------------------------
  free  energy   TOTEN  =       -33.07653541 eV

  energy  without entropy=      -33.07653541  energy(sigma->0) =      -33.07653541
 


--------------------------------------------------------------------------------------------------------


    POTLOK:  cpu time    0.0604: real time    0.0604


--------------------------------------------------------------------------------------------------------


 stress matrix after NEB project (eV)
     15.73710      0.00000     -0.00000
     -0.00000     15.73710      0.00000
     -0.00000      0.00000      5.92576
  FORCES: max atom, RMS     8.140215    4.420459
  FORCE total and by dimension   10.827869    8.140215
  Stress total and by dimension   23.031002   15.737097
 writing wavefunctions
     LOOP+:  cpu time    6.1346: real time    6.2286
    4ORBIT:  cpu time    0.0000: real time    0.0000

 total amount of memory used by VASP MPI-rank0    37007. kBytes
=======================================================================

   base      :      30000. kBytes
   nonl-proj :        502. kBytes
   fftplans  :       2328. kBytes
   grid      :       3750. kBytes
   one-center:         31. kBytes
   wavefun   :        396. kBytes
 
  
  
 General timing and accounting informations for this job:
 ========================================================
  
                  Total CPU time used (sec):        7.723
                            User time (sec):        6.938
                          System time (sec):        0.784
                         Elapsed time (sec):        8.440
  
                   Maximum memory used (kb):      124016.
                   Average memory used (kb):          N/A
  
                          Minor page faults:        23184
                          Major page faults:            0
                 Voluntary context switches:          943
