 vasp.6.2.0 18Jan21 (build Jul 31 2023 14:19:35) complex                        
  
 executed on             LinuxIFC date 2025.09.17  14:42:18
 running on    8 total cores
 distrk:  each k-point on    8 cores,    1 groups
 distr:  one band on NCORE=   4 cores,    2 groups


--------------------------------------------------------------------------------------------------------


 INCAR:
   SYSTEM = MoS2_SinglePoint_vdW_Coulomb
   PREC = Accurate
   ENCUT = 500
   GGA = PE
   ALGO = Normal
   NELM = 100
   NELMIN = 5
   EDIFF = 1E-6
   ISMEAR = 0
   SIGMA = 0.05
   IBRION = -1
   NSW = 0
   LREAL = .FALSE.
   LCHARG = .TRUE.
   LWAVE = .TRUE.
   NWRITE = 1
   NCORE = 4

 POTCAR:    PAW_PBE Mo_sv 02Feb2006               
 POTCAR:    PAW_PBE S 06Sep2000                   
 POTCAR:    PAW_PBE Mo_sv 02Feb2006               
  local pseudopotential read in
  partial core-charges read in
  partial kinetic energy density read in
  atomic valenz-charges read in
  non local Contribution for L=           0  read in
    real space projection operators read in
  non local Contribution for L=           0  read in
    real space projection operators read in
  non local Contribution for L=           1  read in
    real space projection operators read in
  non local Contribution for L=           1  read in
    real space projection operators read in
  non local Contribution for L=           2  read in
    real space projection operators read in
  non local Contribution for L=           2  read in
    real space projection operators read in
    PAW grid and wavefunctions read in
 
   number of l-projection  operators is LMAX  =           6
   number of lm-projection operators is LMMAX =          18
 
 POTCAR:    PAW_PBE S 06Sep2000                   
  local pseudopotential read in
  partial core-charges read in
  partial kinetic energy density read in
  atomic valenz-charges read in
  non local Contribution for L=           0  read in
    real space projection operators read in
  non local Contribution for L=           0  read in
    real space projection operators read in
  non local Contribution for L=           1  read in
    real space projection operators read in
  non local Contribution for L=           1  read in
    real space projection operators read in
    PAW grid and wavefunctions read in
 
   number of l-projection  operators is LMAX  =           4
   number of lm-projection operators is LMMAX =           8
 
  PAW_PBE Mo_sv 02Feb2006               :
 energy of atom  1       EATOM=-1862.2866
 kinetic energy error for atom=    0.0074 (will be added to EATOM!!)
  PAW_PBE S 06Sep2000                   :
 energy of atom  2       EATOM= -276.8230
 kinetic energy error for atom=    0.0020 (will be added to EATOM!!)
 
 
 POSCAR: Mo S
  positions in direct lattice
  No initial velocities read in
 exchange correlation table for  LEXCH =        8
   RHO(1)=    0.500       N(1)  =     2000
   RHO(2)=  100.500       N(2)  =     4000

 VTST: version 4.0, (05/15/20)

 CHAIN: initializing optimizer
 
 OPT: Using VASP Dynamics algorithm
 CHAIN: Read ICHAIN            0
 
 POSCAR: Mo S
  positions in direct lattice
  No initial velocities read in
 


--------------------------------------------------------------------------------------------------------


 ion  position               nearest neighbor table
   1  0.667  0.333  0.250-   6 2.42   6 2.42   6 2.42   4 2.42   4 3.06
   2  0.333  0.667  0.750-   3 2.42   5 2.42   3 2.42   5 2.42   3 2.42   5 2.42
   3  0.667  0.333  0.633-   2 2.42   2 2.42   2 2.42
   4  0.050  0.603  0.411-   1 2.42   1 3.06
   5  0.667  0.333  0.867-   2 2.42   2 2.42   2 2.42
   6  0.333  0.667  0.133-   1 2.42   1 2.42   1 2.42
 
  LATTYP: Found a hexagonal cell.
 ALAT       =     3.1922378540
 C/A-ratio  =     4.1908825730
  
  Lattice vectors:
  
 A1 = (   1.5961189270,  -2.7645590765,   0.0000000000)
 A2 = (   1.5961189270,   2.7645590765,   0.0000000000)
 A3 = (   0.0000000000,   0.0000000000,  13.3782939911)


Analysis of symmetry for initial positions (statically):
=====================================================================
 Subroutine PRICEL returns:
 Original cell was already a primitive cell.
 

 Routine SETGRP: Setting up the symmetry group for a 
 hexagonal supercell.


 Subroutine GETGRP returns: Found  1 space group operations
 (whereof  1 operations were pure point group operations)
 out of a pool of 24 trial point group operations.


The static configuration has the point symmetry C_1 .


Analysis of symmetry for dynamics (positions and initial velocities):
=====================================================================
 Subroutine PRICEL returns:
 Original cell was already a primitive cell.
 

 Routine SETGRP: Setting up the symmetry group for a 
 hexagonal supercell.


 Subroutine GETGRP returns: Found  1 space group operations
 (whereof  1 operations were pure point group operations)
 out of a pool of 24 trial point group operations.


The dynamic configuration has the point symmetry C_1 .


 Subroutine INISYM returns: Found  1 space group operations
 (whereof  1 operations are pure point group operations),
 and found     1 'primitive' translations


----------------------------------------------------------------------------------------

                                     Primitive cell                                     

  volume of cell :     118.0652

  direct lattice vectors                    reciprocal lattice vectors
     1.596118927 -2.764559076  0.000000000     0.313259865 -0.180860668  0.000000000
     1.596118927  2.764559076  0.000000000     0.313259865  0.180860668  0.000000000
     0.000000000  0.000000000 13.378293991     0.000000000  0.000000000  0.074747946

  length of vectors
     3.192237854  3.192237854 13.378293991     0.361721335  0.361721335  0.074747946

  position of ions in fractional coordinates (direct lattice)
     0.666666667  0.333333333  0.250000000
     0.333333333  0.666666667  0.750000000
     0.666666667  0.333333333  0.633082000
     0.049961520  0.603403818  0.411322087
     0.666666667  0.333333333  0.866918000
     0.333333333  0.666666667  0.133082000

  ion indices of the primitive-cell ions
   primitive index   ion index
                 1           1
                 2           2
                 3           3
                 4           4
                 5           5
                 6           6

----------------------------------------------------------------------------------------

 
 
 KPOINTS: K-Spacing Value to Generate K-Mesh: 0.15

Automatic generation of k-mesh.
 Grid dimensions read from file:
 generate k-points for:    2    2    1

 Generating k-lattice:

  Cartesian coordinates                     Fractional coordinates (reciprocal lattice)
     0.156629933 -0.090430334  0.000000000     0.500000000  0.000000000  0.000000000
     0.156629933  0.090430334  0.000000000     0.000000000  0.500000000  0.000000000
     0.000000000  0.000000000  0.074747946     0.000000000  0.000000000  1.000000000

  Length of vectors
     0.180860668  0.180860668  0.074747946

  Shift w.r.t. Gamma in fractional coordinates (k-lattice)
     0.500000000  0.500000000  0.000000000

 
 Subroutine IBZKPT returns following result:
 ===========================================
 
 Found      6 irreducible k-points:
 
 Following reciprocal coordinates:
            Coordinates               Weight
  0.250000  0.250000  0.000000      2.000000
 -0.250000  0.500000  0.000000      2.000000
  0.500000  0.250000  0.000000      2.000000
 -0.250000  0.250000  0.000000      2.000000
 -0.250000  0.000000  0.000000      2.000000
  0.000000 -0.250000  0.000000      2.000000
 
 Following cartesian coordinates:
            Coordinates               Weight
  0.156630  0.000000  0.000000      2.000000
  0.078315  0.135646  0.000000      2.000000
  0.234945 -0.045215  0.000000      2.000000
  0.000000  0.090430  0.000000      2.000000
 -0.078315  0.045215  0.000000      2.000000
 -0.078315 -0.045215  0.000000      2.000000
 


--------------------------------------------------------------------------------------------------------




 Dimension of arrays:
   k-points           NKPTS =      6   k-points in BZ     NKDIM =      6   number of bands    NBANDS=     32
   number of dos      NEDOS =    301   number of ions     NIONS =      6
   non local maximal  LDIM  =      6   non local SUM 2l+1 LMDIM =     18
   total plane-waves  NPLWV =  56448
   max r-space proj   IRMAX =      1   max aug-charges    IRDMAX=  21106
   dimension x,y,z NGX =    24 NGY =   24 NGZ =   98
   dimension x,y,z NGXF=    48 NGYF=   48 NGZF=  196
   support grid    NGXF=    48 NGYF=   48 NGZF=  196
   ions per type =               2   4
   NGX,Y,Z   is equivalent  to a cutoff of  12.50, 12.50, 12.18 a.u.
   NGXF,Y,Z  is equivalent  to a cutoff of  25.00, 25.00, 24.36 a.u.

 SYSTEM =  MoS2_SinglePoint_vdW_Coulomb           
 POSCAR =  Mo S                                    

 Startparameter for this run:
   NWRITE =      1    write-flag & timer
   PREC   = accura    normal or accurate (medium, high low for compatibility)
   ISTART =      0    job   : 0-new  1-cont  2-samecut
   ICHARG =      2    charge: 1-file 2-atom 10-const
   ISPIN  =      1    spin polarized calculation?
   LNONCOLLINEAR =      F non collinear calculations
   LSORBIT =      F    spin-orbit coupling
   INIWAV =      1    electr: 0-lowe 1-rand  2-diag
   LASPH  =      F    aspherical Exc in radial PAW
   METAGGA=      F    non-selfconsistent MetaGGA calc.

 Electronic Relaxation 1
   ENCUT  =  500.0 eV  36.75 Ry    6.06 a.u.   5.82  5.82 24.39*2*pi/ulx,y,z
   ENINI  =  500.0     initial cutoff
   ENAUG  =  446.0 eV  augmentation charge cutoff
   NELM   =    100;   NELMIN=  5; NELMDL= -5     # of ELM steps 
   EDIFF  = 0.1E-05   stopping-criterion for ELM
   LREAL  =      F    real-space projection
   NLSPLINE    = F    spline interpolate recip. space projectors
   LCOMPAT=      F    compatible to vasp.4.4
   GGA_COMPAT  = T    GGA compatible to vasp.4.4-vasp.4.6
   LMAXPAW     = -100 max onsite density
   LMAXMIX     =    2 max onsite mixed and CHGCAR
   VOSKOWN=      0    Vosko Wilk Nusair interpolation
   ROPT   =    0.00000   0.00000
 Ionic relaxation
   EDIFFG = 0.1E-04   stopping-criterion for IOM
   NSW    =      0    number of steps for IOM
   NBLOCK =      1;   KBLOCK =      1    inner block; outer block 
   IBRION =     -1    ionic relax: 0-MD 1-quasi-New 2-CG
   NFREE  =      0    steps in history (QN), initial steepest desc. (CG)
   ISIF   =      2    stress and relaxation
   IWAVPR =     10    prediction:  0-non 1-charg 2-wave 3-comb
   ISYM   =      2    0-nonsym 1-usesym 2-fastsym
   LCORR  =      T    Harris-Foulkes like correction to forces

   POTIM  = 0.5000    time-step for ionic-motion
   TEIN   =    0.0    initial temperature
   TEBEG  =    0.0;   TEEND  =   0.0 temperature during run
   SMASS  =  -3.00    Nose mass-parameter (am)
   estimated Nose-frequenzy (Omega)   =  0.10E-29 period in steps = 0.13E+47 mass=  -0.233E-27a.u.
   SCALEE = 1.0000    scale energy and forces
   NPACO  =    256;   APACO  = 16.0  distance and # of slots for P.C.
   PSTRESS=    0.0 pullay stress

  Mass of Ions in am
   POMASS =  95.94 32.07
  Ionic Valenz
   ZVAL   =  14.00  6.00
  Atomic Wigner-Seitz radii
   RWIGS  =  -1.00 -1.00
  virtual crystal weights 
   VCA    =   1.00  1.00
   NELECT =      52.0000    total number of electrons
   NUPDOWN=      -1.0000    fix difference up-down

 DOS related values:
   EMIN   =  10.00;   EMAX   =-10.00  energy-range for DOS
   EFERMI =   0.00
   ISMEAR =     0;   SIGMA  =   0.05  broadening in eV -4-tet -1-fermi 0-gaus

 Electronic relaxation 2 (details)
   IALGO  =     38    algorithm
   LDIAG  =      T    sub-space diagonalisation (order eigenvalues)
   LSUBROT=      F    optimize rotation matrix (better conditioning)
   TURBO    =      0    0=normal 1=particle mesh
   IRESTART =      0    0=no restart 2=restart with 2 vectors
   NREBOOT  =      0    no. of reboots
   NMIN     =      0    reboot dimension
   EREF     =   0.00    reference energy to select bands
   IMIX   =      4    mixing-type and parameters
     AMIX     =   0.40;   BMIX     =  1.00
     AMIX_MAG =   1.60;   BMIX_MAG =  1.00
     AMIN     =   0.10
     WC   =   100.;   INIMIX=   1;  MIXPRE=   1;  MAXMIX= -45

 Intra band minimization:
   WEIMIN = 0.0000     energy-eigenvalue tresh-hold
   EBREAK =  0.78E-08  absolut break condition
   DEPER  =   0.30     relativ break condition  

   TIME   =   0.40     timestep for ELM

  volume/ion in A,a.u.               =      19.68       132.79
  Fermi-wavevector in a.u.,A,eV,Ry     =   1.245571  2.353789 21.108736  1.551448
  Thomas-Fermi vector in A             =   2.379788
 
 Write flags
   LWAVE        =      T    write WAVECAR
   LDOWNSAMPLE  =      F    k-point downsampling of WAVECAR
   LCHARG       =      T    write CHGCAR
   LVTOT        =      F    write LOCPOT, total local potential
   LVHAR        =      F    write LOCPOT, Hartree potential only
   LELF         =      F    write electronic localiz. function (ELF)
   LORBIT       =      0    0 simple, 1 ext, 2 COOP (PROOUT), +10 PAW based schemes


 Dipole corrections
   LMONO  =      F    monopole corrections only (constant potential shift)
   LDIPOL =      F    correct potential (dipole corrections)
   IDIPOL =      0    1-x, 2-y, 3-z, 4-all directions 
   EPSILON=  1.0000000 bulk dielectric constant

 Exchange correlation treatment:
   GGA     =    PE    GGA type
   LEXCH   =     8    internal setting for exchange type
   VOSKOWN=      0    Vosko Wilk Nusair interpolation
   LHFCALC =     F    Hartree Fock is set to
   LHFONE  =     F    Hartree Fock one center treatment
   AEXX    =    0.0000 exact exchange contribution

 Linear response parameters
   LEPSILON=     F    determine dielectric tensor
   LRPA    =     F    only Hartree local field effects (RPA)
   LNABLA  =     F    use nabla operator in PAW spheres
   LVEL    =     F    velocity operator in full k-point grid
   LINTERFAST=   F  fast interpolation
   KINTER  =     0    interpolate to denser k-point grid
   CSHIFT  =0.1000    complex shift for real part using Kramers Kronig
   OMEGAMAX=  -1.0    maximum frequency
   DEG_THRESHOLD= 0.2000000E-02 threshold for treating states as degnerate
   RTIME   =   -0.100 relaxation time in fs
  (WPLASMAI=    0.000 imaginary part of plasma frequency in eV, 0.658/RTIME)
   DFIELD  = 0.0000000 0.0000000 0.0000000 field for delta impulse in time
 
 Orbital magnetization related:
   ORBITALMAG=     F  switch on orbital magnetization
   LCHIMAG   =     F  perturbation theory with respect to B field
   DQ        =  0.001000  dq finite difference perturbation B field
   LLRAUG    =     F  two centre corrections for induced B field



--------------------------------------------------------------------------------------------------------


 Static calculation
 charge density and potential will be updated during run
 non-spin polarized calculation
 Variant of blocked Davidson
 Davidson routine will perform the subspace rotation
 perform sub-space diagonalisation
    after iterative eigenvector-optimisation
 modified Broyden-mixing scheme, WC =      100.0
 initial mixing is a Kerker type mixing with AMIX =  0.4000 and BMIX =      1.0000
 Hartree-type preconditioning will be used
 using additional bands            6
 reciprocal scheme for non local part
 use partial core corrections
 calculate Harris-corrections to forces 
   (improved forces if not selfconsistent)
 use gradient corrections 
 use of overlap-Matrix (Vanderbilt PP)
 Gauss-broadening in eV      SIGMA  =   0.05


--------------------------------------------------------------------------------------------------------


  energy-cutoff  :      500.00
  volume of cell :      118.07
      direct lattice vectors                 reciprocal lattice vectors
     1.596118927 -2.764559076  0.000000000     0.313259865 -0.180860668  0.000000000
     1.596118927  2.764559076  0.000000000     0.313259865  0.180860668  0.000000000
     0.000000000  0.000000000 13.378293991     0.000000000  0.000000000  0.074747946

  length of vectors
     3.192237854  3.192237854 13.378293991     0.361721335  0.361721335  0.074747946


 
 k-points in units of 2pi/SCALE and weight: K-Spacing Value to Generate K-Mesh: 0.15
   0.15662993  0.00000000  0.00000000       0.167
   0.07831497  0.13564550  0.00000000       0.167
   0.23494490 -0.04521517  0.00000000       0.167
   0.00000000  0.09043033  0.00000000       0.167
  -0.07831497  0.04521517  0.00000000       0.167
  -0.07831497 -0.04521517  0.00000000       0.167
 
 k-points in reciprocal lattice and weights: K-Spacing Value to Generate K-Mesh: 0.15
   0.25000000  0.25000000  0.00000000       0.167
  -0.25000000  0.50000000  0.00000000       0.167
   0.50000000  0.25000000  0.00000000       0.167
  -0.25000000  0.25000000  0.00000000       0.167
  -0.25000000  0.00000000  0.00000000       0.167
   0.00000000 -0.25000000  0.00000000       0.167
 
 position of ions in fractional coordinates (direct lattice) 
   0.66666667  0.33333333  0.25000000
   0.33333333  0.66666667  0.75000000
   0.66666667  0.33333333  0.63308200
   0.04996152  0.60340382  0.41132209
   0.66666667  0.33333333  0.86691800
   0.33333333  0.66666667  0.13308200
 
 position of ions in cartesian coordinates  (Angst):
   1.59611893 -0.92151969  3.34457350
   1.59611893  0.92151969 10.03372049
   1.59611893 -0.92151969  8.46955712
   1.04284878  1.53002393  5.50278781
   1.59611893 -0.92151969 11.59788387
   1.59611893  0.92151969  1.78041012
 


--------------------------------------------------------------------------------------------------------


 k-point   1 :   0.2500 0.2500 0.0000  plane waves:    3020
 k-point   2 :  -0.2500 0.5000 0.0000  plane waves:    3020
 k-point   3 :   0.5000 0.2500 0.0000  plane waves:    3020
 k-point   4 :  -0.2500 0.2500 0.0000  plane waves:    2992
 k-point   5 :  -0.2500 0.0000 0.0000  plane waves:    2992
 k-point   6 :   0.0000-0.2500 0.0000  plane waves:    2992

 maximum and minimum number of plane-waves per node :       767      745

 maximum number of plane-waves:      3020
 maximum index in each direction: 
   IXMAX=    6   IYMAX=    6   IZMAX=   24
   IXMIN=   -6   IYMIN=   -6   IZMIN=  -24


 parallel 3D FFT for wavefunctions:
    minimum data exchange during FFTs selected (reduces bandwidth)
 parallel 3D FFT for charge:
    minimum data exchange during FFTs selected (reduces bandwidth)


 total amount of memory used by VASP MPI-rank0    38677. kBytes
=======================================================================

   base      :      30000. kBytes
   nonl-proj :       1371. kBytes
   fftplans  :       2330. kBytes
   grid      :       3750. kBytes
   one-center:         31. kBytes
   wavefun   :       1195. kBytes
 
     INWAV:  cpu time    0.0000: real time    0.0001
 Broyden mixing: mesh for mixing (old mesh)
   NGX = 11   NGY = 11   NGZ = 49
  (NGX  = 48   NGY  = 48   NGZ  =196)
  gives a total of   5929 points

 initial charge density was supplied:
 charge density of overlapping atoms calculated
 number of electron      52.0000000 magnetization 
 keeping initial charge density in first step


--------------------------------------------------------------------------------------------------------


 Maximum index for augmentation-charges         2591 (set IRDMAX)


--------------------------------------------------------------------------------------------------------


 First call to EWALD:  gamma=   0.361
 Maximum number of real-space cells 4x 4x 1
 Maximum number of reciprocal cells 2x 2x 7

    FEWALD:  cpu time    0.0020: real time    0.0020


--------------------------------------- Iteration      1(   1)  ---------------------------------------


    POTLOK:  cpu time    0.0556: real time    0.0569
    SETDIJ:  cpu time    0.0055: real time    0.0055
     EDDAV:  cpu time    0.3947: real time    0.3949
       DOS:  cpu time    0.0007: real time    0.0007
    --------------------------------------------
      LOOP:  cpu time    0.4565: real time    0.4580

 eigenvalue-minimisations  :   432
 total energy-change (2. order) : 0.4195114E+03  (-0.2911252E+04)
 number of electron      52.0000000 magnetization 
 augmentation part       52.0000000 magnetization 

 Free energy of the ion-electron system (eV)
  ---------------------------------------------------
  alpha Z        PSCENC =       160.27286088
  Ewald energy   TEWEN  =     -3027.14871781
  -Hartree energ DENC   =     -1727.68307140
  -exchange      EXHF   =         0.00000000
  -V(xc)+E(xc)   XCENC  =       181.78468729
  PAW double counting   =      3865.57804258    -3815.84821480
  entropy T*S    EENTRO =        -0.00023735
  eigenvalues    EBANDS =       -49.28653417
  atomic energy  EATOM  =      4831.84262874
  Solvation  Ediel_sol  =         0.00000000
  ---------------------------------------------------
  free energy    TOTEN  =       419.51144395 eV

  energy without entropy =      419.51168130  energy(sigma->0) =      419.51156262


--------------------------------------------------------------------------------------------------------




--------------------------------------- Iteration      1(   2)  ---------------------------------------


     EDDAV:  cpu time    0.4048: real time    0.4074
       DOS:  cpu time    0.0002: real time    0.0002
    --------------------------------------------
      LOOP:  cpu time    0.4050: real time    0.4076

 eigenvalue-minimisations  :   456
 total energy-change (2. order) :-0.4407643E+03  (-0.4302638E+03)
 number of electron      52.0000000 magnetization 
 augmentation part       52.0000000 magnetization 

 Free energy of the ion-electron system (eV)
  ---------------------------------------------------
  alpha Z        PSCENC =       160.27286088
  Ewald energy   TEWEN  =     -3027.14871781
  -Hartree energ DENC   =     -1727.68307140
  -exchange      EXHF   =         0.00000000
  -V(xc)+E(xc)   XCENC  =       181.78468729
  PAW double counting   =      3865.57804258    -3815.84821480
  entropy T*S    EENTRO =        -0.00000000
  eigenvalues    EBANDS =      -490.05111367
  atomic energy  EATOM  =      4831.84262874
  Solvation  Ediel_sol  =         0.00000000
  ---------------------------------------------------
  free energy    TOTEN  =       -21.25289820 eV

  energy without entropy =      -21.25289820  energy(sigma->0) =      -21.25289820


--------------------------------------------------------------------------------------------------------




--------------------------------------- Iteration      1(   3)  ---------------------------------------


     EDDAV:  cpu time    0.4442: real time    0.4486
       DOS:  cpu time    0.0002: real time    0.0002
    --------------------------------------------
      LOOP:  cpu time    0.4445: real time    0.4488

 eigenvalue-minimisations  :   504
 total energy-change (2. order) :-0.2342276E+02  (-0.2313795E+02)
 number of electron      52.0000000 magnetization 
 augmentation part       52.0000000 magnetization 

 Free energy of the ion-electron system (eV)
  ---------------------------------------------------
  alpha Z        PSCENC =       160.27286088
  Ewald energy   TEWEN  =     -3027.14871781
  -Hartree energ DENC   =     -1727.68307140
  -exchange      EXHF   =         0.00000000
  -V(xc)+E(xc)   XCENC  =       181.78468729
  PAW double counting   =      3865.57804258    -3815.84821480
  entropy T*S    EENTRO =        -0.00000000
  eigenvalues    EBANDS =      -513.47387756
  atomic energy  EATOM  =      4831.84262874
  Solvation  Ediel_sol  =         0.00000000
  ---------------------------------------------------
  free energy    TOTEN  =       -44.67566209 eV

  energy without entropy =      -44.67566209  energy(sigma->0) =      -44.67566209


--------------------------------------------------------------------------------------------------------




--------------------------------------- Iteration      1(   4)  ---------------------------------------


     EDDAV:  cpu time    0.4198: real time    0.4210
       DOS:  cpu time    0.0002: real time    0.0002
    --------------------------------------------
      LOOP:  cpu time    0.4200: real time    0.4212

 eigenvalue-minimisations  :   472
 total energy-change (2. order) :-0.5165435E+00  (-0.5139629E+00)
 number of electron      52.0000000 magnetization 
 augmentation part       52.0000000 magnetization 

 Free energy of the ion-electron system (eV)
  ---------------------------------------------------
  alpha Z        PSCENC =       160.27286088
  Ewald energy   TEWEN  =     -3027.14871781
  -Hartree energ DENC   =     -1727.68307140
  -exchange      EXHF   =         0.00000000
  -V(xc)+E(xc)   XCENC  =       181.78468729
  PAW double counting   =      3865.57804258    -3815.84821480
  entropy T*S    EENTRO =        -0.00000000
  eigenvalues    EBANDS =      -513.99042109
  atomic energy  EATOM  =      4831.84262874
  Solvation  Ediel_sol  =         0.00000000
  ---------------------------------------------------
  free energy    TOTEN  =       -45.19220561 eV

  energy without entropy =      -45.19220561  energy(sigma->0) =      -45.19220561


--------------------------------------------------------------------------------------------------------




--------------------------------------- Iteration      1(   5)  ---------------------------------------


     EDDAV:  cpu time    0.4453: real time    0.4488
       DOS:  cpu time    0.0002: real time    0.0002
    CHARGE:  cpu time    0.0367: real time    0.0367
    MIXING:  cpu time    0.0014: real time    0.0014
    --------------------------------------------
      LOOP:  cpu time    0.4837: real time    0.4872

 eigenvalue-minimisations  :   512
 total energy-change (2. order) :-0.1420643E-01  (-0.1420004E-01)
 number of electron      51.9999992 magnetization 
 augmentation part        0.6317906 magnetization 

 Broyden mixing:
  rms(total) = 0.29537E+01    rms(broyden)= 0.29537E+01
  rms(prec ) = 0.31007E+01
  weight for this iteration     100.00

 Free energy of the ion-electron system (eV)
  ---------------------------------------------------
  alpha Z        PSCENC =       160.27286088
  Ewald energy   TEWEN  =     -3027.14871781
  -Hartree energ DENC   =     -1727.68307140
  -exchange      EXHF   =         0.00000000
  -V(xc)+E(xc)   XCENC  =       181.78468729
  PAW double counting   =      3865.57804258    -3815.84821480
  entropy T*S    EENTRO =        -0.00000000
  eigenvalues    EBANDS =      -514.00462751
  atomic energy  EATOM  =      4831.84262874
  Solvation  Ediel_sol  =         0.00000000
  ---------------------------------------------------
  free energy    TOTEN  =       -45.20641204 eV

  energy without entropy =      -45.20641204  energy(sigma->0) =      -45.20641204


--------------------------------------------------------------------------------------------------------




--------------------------------------- Iteration      1(   6)  ---------------------------------------


    POTLOK:  cpu time    0.0557: real time    0.0596
    SETDIJ:  cpu time    0.0054: real time    0.0054
     EDDAV:  cpu time    0.3900: real time    0.3901
       DOS:  cpu time    0.0002: real time    0.0002
    CHARGE:  cpu time    0.0361: real time    0.0361
    MIXING:  cpu time    0.0015: real time    0.0015
    --------------------------------------------
      LOOP:  cpu time    0.4889: real time    0.4929

 eigenvalue-minimisations  :   432
 total energy-change (2. order) : 0.2804457E+00  (-0.4015429E+01)
 number of electron      51.9999990 magnetization 
 augmentation part        2.3508804 magnetization 

 Broyden mixing:
  rms(total) = 0.15259E+01    rms(broyden)= 0.15259E+01
  rms(prec ) = 0.20378E+01
  weight for this iteration     100.00

 eigenvalues of (default mixing * dielectric matrix)
  average eigenvalue GAMMA=   0.9327
  0.9327

 Free energy of the ion-electron system (eV)
  ---------------------------------------------------
  alpha Z        PSCENC =       160.27286088
  Ewald energy   TEWEN  =     -3027.14871781
  -Hartree energ DENC   =     -1660.39884939
  -exchange      EXHF   =         0.00000000
  -V(xc)+E(xc)   XCENC  =       179.96896166
  PAW double counting   =      4431.66625100    -4389.04308453
  entropy T*S    EENTRO =        -0.00000000
  eigenvalues    EBANDS =      -572.08601691
  atomic energy  EATOM  =      4831.84262874
  Solvation  Ediel_sol  =         0.00000000
  ---------------------------------------------------
  free energy    TOTEN  =       -44.92596635 eV

  energy without entropy =      -44.92596635  energy(sigma->0) =      -44.92596635


--------------------------------------------------------------------------------------------------------




--------------------------------------- Iteration      1(   7)  ---------------------------------------


    POTLOK:  cpu time    0.0551: real time    0.0587
    SETDIJ:  cpu time    0.0053: real time    0.0053
     EDDAV:  cpu time    0.4135: real time    0.4139
       DOS:  cpu time    0.0004: real time    0.0004
    CHARGE:  cpu time    0.0361: real time    0.0361
    MIXING:  cpu time    0.0014: real time    0.0014
    --------------------------------------------
      LOOP:  cpu time    0.5118: real time    0.5159

 eigenvalue-minimisations  :   464
 total energy-change (2. order) : 0.9160285E+00  (-0.4890966E+01)
 number of electron      51.9999991 magnetization 
 augmentation part        1.0936325 magnetization 

 Broyden mixing:
  rms(total) = 0.10128E+01    rms(broyden)= 0.10128E+01
  rms(prec ) = 0.14253E+01
  weight for this iteration     100.00

 eigenvalues of (default mixing * dielectric matrix)
  average eigenvalue GAMMA=   0.9662
  1.4789  0.4535

 Free energy of the ion-electron system (eV)
  ---------------------------------------------------
  alpha Z        PSCENC =       160.27286088
  Ewald energy   TEWEN  =     -3027.14871781
  -Hartree energ DENC   =     -1711.01812791
  -exchange      EXHF   =         0.00000000
  -V(xc)+E(xc)   XCENC  =       180.84207392
  PAW double counting   =      4859.83696868    -4814.38950604
  entropy T*S    EENTRO =        -0.00000000
  eigenvalues    EBANDS =      -524.24811828
  atomic energy  EATOM  =      4831.84262874
  Solvation  Ediel_sol  =         0.00000000
  ---------------------------------------------------
  free energy    TOTEN  =       -44.00993783 eV

  energy without entropy =      -44.00993783  energy(sigma->0) =      -44.00993783


--------------------------------------------------------------------------------------------------------




--------------------------------------- Iteration      1(   8)  ---------------------------------------


    POTLOK:  cpu time    0.0550: real time    0.0588
    SETDIJ:  cpu time    0.0054: real time    0.0054
     EDDAV:  cpu time    0.3999: real time    0.3999
       DOS:  cpu time    0.0004: real time    0.0004
    CHARGE:  cpu time    0.0362: real time    0.0362
    MIXING:  cpu time    0.0014: real time    0.0014
    --------------------------------------------
      LOOP:  cpu time    0.4983: real time    0.5022

 eigenvalue-minimisations  :   448
 total energy-change (2. order) : 0.1936641E+01  (-0.8302062E+00)
 number of electron      51.9999991 magnetization 
 augmentation part        1.3975765 magnetization 

 Broyden mixing:
  rms(total) = 0.46485E+00    rms(broyden)= 0.46485E+00
  rms(prec ) = 0.50240E+00
  weight for this iteration     100.00

 eigenvalues of (default mixing * dielectric matrix)
  average eigenvalue GAMMA=   1.0326
  1.9897  0.6850  0.4229

 Free energy of the ion-electron system (eV)
  ---------------------------------------------------
  alpha Z        PSCENC =       160.27286088
  Ewald energy   TEWEN  =     -3027.14871781
  -Hartree energ DENC   =     -1695.57081397
  -exchange      EXHF   =         0.00000000
  -V(xc)+E(xc)   XCENC  =       180.49956473
  PAW double counting   =      5236.89945133    -5193.26899045
  entropy T*S    EENTRO =        -0.00000005
  eigenvalues    EBANDS =      -535.59928034
  atomic energy  EATOM  =      4831.84262874
  Solvation  Ediel_sol  =         0.00000000
  ---------------------------------------------------
  free energy    TOTEN  =       -42.07329695 eV

  energy without entropy =      -42.07329691  energy(sigma->0) =      -42.07329693


--------------------------------------------------------------------------------------------------------




--------------------------------------- Iteration      1(   9)  ---------------------------------------


    POTLOK:  cpu time    0.0549: real time    0.0585
    SETDIJ:  cpu time    0.0054: real time    0.0054
     EDDAV:  cpu time    0.4350: real time    0.4351
       DOS:  cpu time    0.0006: real time    0.0006
    CHARGE:  cpu time    0.0367: real time    0.0367
    MIXING:  cpu time    0.0015: real time    0.0015
    --------------------------------------------
      LOOP:  cpu time    0.5341: real time    0.5379

 eigenvalue-minimisations  :   488
 total energy-change (2. order) : 0.8100470E-01  (-0.8917129E-01)
 number of electron      51.9999991 magnetization 
 augmentation part        1.5736797 magnetization 

 Broyden mixing:
  rms(total) = 0.14401E+00    rms(broyden)= 0.14401E+00
  rms(prec ) = 0.15975E+00
  weight for this iteration     100.00

 eigenvalues of (default mixing * dielectric matrix)
  average eigenvalue GAMMA=   1.0553
  2.2028  0.9963  0.4658  0.5564

 Free energy of the ion-electron system (eV)
  ---------------------------------------------------
  alpha Z        PSCENC =       160.27286088
  Ewald energy   TEWEN  =     -3027.14871781
  -Hartree energ DENC   =     -1687.75317727
  -exchange      EXHF   =         0.00000000
  -V(xc)+E(xc)   XCENC  =       180.26538268
  PAW double counting   =      5484.63466686    -5442.09883538
  entropy T*S    EENTRO =        -0.00000029
  eigenvalues    EBANDS =      -542.00710066
  atomic energy  EATOM  =      4831.84262874
  Solvation  Ediel_sol  =         0.00000000
  ---------------------------------------------------
  free energy    TOTEN  =       -41.99229225 eV

  energy without entropy =      -41.99229196  energy(sigma->0) =      -41.99229211


--------------------------------------------------------------------------------------------------------




--------------------------------------- Iteration      1(  10)  ---------------------------------------


    POTLOK:  cpu time    0.0555: real time    0.0585
    SETDIJ:  cpu time    0.0054: real time    0.0054
     EDDAV:  cpu time    0.4181: real time    0.4181
       DOS:  cpu time    0.0006: real time    0.0006
    CHARGE:  cpu time    0.0364: real time    0.0364
    MIXING:  cpu time    0.0016: real time    0.0016
    --------------------------------------------
      LOOP:  cpu time    0.5175: real time    0.5206

 eigenvalue-minimisations  :   472
 total energy-change (2. order) : 0.8597985E-02  (-0.6159267E-02)
 number of electron      51.9999991 magnetization 
 augmentation part        1.5749815 magnetization 

 Broyden mixing:
  rms(total) = 0.75648E-01    rms(broyden)= 0.75647E-01
  rms(prec ) = 0.86296E-01
  weight for this iteration     100.00

 eigenvalues of (default mixing * dielectric matrix)
  average eigenvalue GAMMA=   1.0918
  2.0212  1.5814  0.4480  0.7746  0.6339

 Free energy of the ion-electron system (eV)
  ---------------------------------------------------
  alpha Z        PSCENC =       160.27286088
  Ewald energy   TEWEN  =     -3027.14871781
  -Hartree energ DENC   =     -1688.17826432
  -exchange      EXHF   =         0.00000000
  -V(xc)+E(xc)   XCENC  =       180.25967033
  PAW double counting   =      5549.75852775    -5507.35352757
  entropy T*S    EENTRO =        -0.00000103
  eigenvalues    EBANDS =      -541.43687124
  atomic energy  EATOM  =      4831.84262874
  Solvation  Ediel_sol  =         0.00000000
  ---------------------------------------------------
  free energy    TOTEN  =       -41.98369427 eV

  energy without entropy =      -41.98369324  energy(sigma->0) =      -41.98369375


--------------------------------------------------------------------------------------------------------




--------------------------------------- Iteration      1(  11)  ---------------------------------------


    POTLOK:  cpu time    0.0548: real time    0.0584
    SETDIJ:  cpu time    0.0053: real time    0.0053
     EDDAV:  cpu time    0.4178: real time    0.4179
       DOS:  cpu time    0.0006: real time    0.0006
    CHARGE:  cpu time    0.0364: real time    0.0364
    MIXING:  cpu time    0.0016: real time    0.0016
    --------------------------------------------
      LOOP:  cpu time    0.5164: real time    0.5202

 eigenvalue-minimisations  :   472
 total energy-change (2. order) : 0.2271382E-02  (-0.2733452E-02)
 number of electron      51.9999991 magnetization 
 augmentation part        1.5454186 magnetization 

 Broyden mixing:
  rms(total) = 0.31729E-01    rms(broyden)= 0.31729E-01
  rms(prec ) = 0.35296E-01
  weight for this iteration     100.00

 eigenvalues of (default mixing * dielectric matrix)
  average eigenvalue GAMMA=   1.1588
  2.2499  2.0432  0.4485  0.6593  0.7760  0.7760

 Free energy of the ion-electron system (eV)
  ---------------------------------------------------
  alpha Z        PSCENC =       160.27286088
  Ewald energy   TEWEN  =     -3027.14871781
  -Hartree energ DENC   =     -1689.31666953
  -exchange      EXHF   =         0.00000000
  -V(xc)+E(xc)   XCENC  =       180.29490258
  PAW double counting   =      5539.51133783    -5497.00943751
  entropy T*S    EENTRO =        -0.00000220
  eigenvalues    EBANDS =      -540.42832587
  atomic energy  EATOM  =      4831.84262874
  Solvation  Ediel_sol  =         0.00000000
  ---------------------------------------------------
  free energy    TOTEN  =       -41.98142289 eV

  energy without entropy =      -41.98142069  energy(sigma->0) =      -41.98142179


--------------------------------------------------------------------------------------------------------




--------------------------------------- Iteration      1(  12)  ---------------------------------------


    POTLOK:  cpu time    0.0548: real time    0.0579
    SETDIJ:  cpu time    0.0054: real time    0.0054
     EDDAV:  cpu time    0.4337: real time    0.4340
       DOS:  cpu time    0.0005: real time    0.0005
    CHARGE:  cpu time    0.0364: real time    0.0364
    MIXING:  cpu time    0.0016: real time    0.0016
    --------------------------------------------
      LOOP:  cpu time    0.5325: real time    0.5358

 eigenvalue-minimisations  :   496
 total energy-change (2. order) :-0.1802395E-03  (-0.5790736E-03)
 number of electron      51.9999991 magnetization 
 augmentation part        1.5538899 magnetization 

 Broyden mixing:
  rms(total) = 0.16898E-01    rms(broyden)= 0.16898E-01
  rms(prec ) = 0.21285E-01
  weight for this iteration     100.00

 eigenvalues of (default mixing * dielectric matrix)
  average eigenvalue GAMMA=   1.1620
  2.0716  2.0716  0.4475  1.0473  1.0473  0.6297  0.8190

 Free energy of the ion-electron system (eV)
  ---------------------------------------------------
  alpha Z        PSCENC =       160.27286088
  Ewald energy   TEWEN  =     -3027.14871781
  -Hartree energ DENC   =     -1689.33444469
  -exchange      EXHF   =         0.00000000
  -V(xc)+E(xc)   XCENC  =       180.30131271
  PAW double counting   =      5548.11872187    -5505.63672323
  entropy T*S    EENTRO =        -0.00000219
  eigenvalues    EBANDS =      -540.39723940
  atomic energy  EATOM  =      4831.84262874
  Solvation  Ediel_sol  =         0.00000000
  ---------------------------------------------------
  free energy    TOTEN  =       -41.98160313 eV

  energy without entropy =      -41.98160094  energy(sigma->0) =      -41.98160203


--------------------------------------------------------------------------------------------------------




--------------------------------------- Iteration      1(  13)  ---------------------------------------


    POTLOK:  cpu time    0.0547: real time    0.0586
    SETDIJ:  cpu time    0.0053: real time    0.0053
     EDDAV:  cpu time    0.4233: real time    0.4236
       DOS:  cpu time    0.0005: real time    0.0005
    CHARGE:  cpu time    0.0364: real time    0.0364
    MIXING:  cpu time    0.0016: real time    0.0016
    --------------------------------------------
      LOOP:  cpu time    0.5220: real time    0.5262

 eigenvalue-minimisations  :   480
 total energy-change (2. order) : 0.4625360E-04  (-0.4037099E-03)
 number of electron      51.9999991 magnetization 
 augmentation part        1.5462110 magnetization 

 Broyden mixing:
  rms(total) = 0.11138E-01    rms(broyden)= 0.11137E-01
  rms(prec ) = 0.15385E-01
  weight for this iteration     100.00

 eigenvalues of (default mixing * dielectric matrix)
  average eigenvalue GAMMA=   1.1275
  2.1778  2.1778  1.1669  1.1669  0.7557  0.4461  0.6015  0.5274

 Free energy of the ion-electron system (eV)
  ---------------------------------------------------
  alpha Z        PSCENC =       160.27286088
  Ewald energy   TEWEN  =     -3027.14871781
  -Hartree energ DENC   =     -1689.58060138
  -exchange      EXHF   =         0.00000000
  -V(xc)+E(xc)   XCENC  =       180.30864236
  PAW double counting   =      5544.99075190    -5502.48607681
  entropy T*S    EENTRO =        -0.00000232
  eigenvalues    EBANDS =      -540.18104242
  atomic energy  EATOM  =      4831.84262874
  Solvation  Ediel_sol  =         0.00000000
  ---------------------------------------------------
  free energy    TOTEN  =       -41.98155687 eV

  energy without entropy =      -41.98155455  energy(sigma->0) =      -41.98155571


--------------------------------------------------------------------------------------------------------




--------------------------------------- Iteration      1(  14)  ---------------------------------------


    POTLOK:  cpu time    0.0550: real time    0.0588
    SETDIJ:  cpu time    0.0053: real time    0.0053
     EDDAV:  cpu time    0.3994: real time    0.3995
       DOS:  cpu time    0.0006: real time    0.0006
    CHARGE:  cpu time    0.0364: real time    0.0364
    MIXING:  cpu time    0.0017: real time    0.0017
    --------------------------------------------
      LOOP:  cpu time    0.4984: real time    0.5023

 eigenvalue-minimisations  :   448
 total energy-change (2. order) : 0.8396445E-04  (-0.6172515E-04)
 number of electron      51.9999991 magnetization 
 augmentation part        1.5489245 magnetization 

 Broyden mixing:
  rms(total) = 0.58952E-02    rms(broyden)= 0.58952E-02
  rms(prec ) = 0.65666E-02
  weight for this iteration     100.00

 eigenvalues of (default mixing * dielectric matrix)
  average eigenvalue GAMMA=   1.2365
  2.3523  2.3523  1.5469  1.5469  0.4468  0.8161  0.7464  0.6251  0.6961

 Free energy of the ion-electron system (eV)
  ---------------------------------------------------
  alpha Z        PSCENC =       160.27286088
  Ewald energy   TEWEN  =     -3027.14871781
  -Hartree energ DENC   =     -1689.60752096
  -exchange      EXHF   =         0.00000000
  -V(xc)+E(xc)   XCENC  =       180.31105102
  PAW double counting   =      5545.46507784    -5502.96214578
  entropy T*S    EENTRO =        -0.00000219
  eigenvalues    EBANDS =      -540.15470465
  atomic energy  EATOM  =      4831.84262874
  Solvation  Ediel_sol  =         0.00000000
  ---------------------------------------------------
  free energy    TOTEN  =       -41.98147291 eV

  energy without entropy =      -41.98147072  energy(sigma->0) =      -41.98147181


--------------------------------------------------------------------------------------------------------




--------------------------------------- Iteration      1(  15)  ---------------------------------------


    POTLOK:  cpu time    0.0548: real time    0.0584
    SETDIJ:  cpu time    0.0053: real time    0.0053
     EDDAV:  cpu time    0.4562: real time    0.4564
       DOS:  cpu time    0.0005: real time    0.0005
    CHARGE:  cpu time    0.0364: real time    0.0364
    MIXING:  cpu time    0.0017: real time    0.0017
    --------------------------------------------
      LOOP:  cpu time    0.5550: real time    0.5588

 eigenvalue-minimisations  :   528
 total energy-change (2. order) :-0.1334701E-04  (-0.1201153E-04)
 number of electron      51.9999991 magnetization 
 augmentation part        1.5498590 magnetization 

 Broyden mixing:
  rms(total) = 0.16041E-02    rms(broyden)= 0.16041E-02
  rms(prec ) = 0.17459E-02
  weight for this iteration     100.00

 eigenvalues of (default mixing * dielectric matrix)
  average eigenvalue GAMMA=   1.2392
  2.5311  2.5311  1.5059  1.5059  1.0282  0.4468  0.8053  0.6497  0.6942  0.6942

 Free energy of the ion-electron system (eV)
  ---------------------------------------------------
  alpha Z        PSCENC =       160.27286088
  Ewald energy   TEWEN  =     -3027.14871781
  -Hartree energ DENC   =     -1689.63707768
  -exchange      EXHF   =         0.00000000
  -V(xc)+E(xc)   XCENC  =       180.31296441
  PAW double counting   =      5544.54571946    -5502.04047277
  entropy T*S    EENTRO =        -0.00000217
  eigenvalues    EBANDS =      -540.12938932
  atomic energy  EATOM  =      4831.84262874
  Solvation  Ediel_sol  =         0.00000000
  ---------------------------------------------------
  free energy    TOTEN  =       -41.98148626 eV

  energy without entropy =      -41.98148409  energy(sigma->0) =      -41.98148517


--------------------------------------------------------------------------------------------------------




--------------------------------------- Iteration      1(  16)  ---------------------------------------


    POTLOK:  cpu time    0.0549: real time    0.0585
    SETDIJ:  cpu time    0.0053: real time    0.0053
     EDDAV:  cpu time    0.3683: real time    0.3683
       DOS:  cpu time    0.0005: real time    0.0005
    CHARGE:  cpu time    0.0365: real time    0.0365
    MIXING:  cpu time    0.0018: real time    0.0018
    --------------------------------------------
      LOOP:  cpu time    0.4673: real time    0.4710

 eigenvalue-minimisations  :   400
 total energy-change (2. order) :-0.5536229E-05  (-0.1650446E-05)
 number of electron      51.9999991 magnetization 
 augmentation part        1.5503910 magnetization 

 Broyden mixing:
  rms(total) = 0.10945E-02    rms(broyden)= 0.10944E-02
  rms(prec ) = 0.13283E-02
  weight for this iteration     100.00

 eigenvalues of (default mixing * dielectric matrix)
  average eigenvalue GAMMA=   1.2296
  2.6944  2.1216  1.5330  1.5330  1.4262  0.4468  0.8624  0.8044  0.8044  0.6494
  0.6494

 Free energy of the ion-electron system (eV)
  ---------------------------------------------------
  alpha Z        PSCENC =       160.27286088
  Ewald energy   TEWEN  =     -3027.14871781
  -Hartree energ DENC   =     -1689.63578654
  -exchange      EXHF   =         0.00000000
  -V(xc)+E(xc)   XCENC  =       180.31364703
  PAW double counting   =      5544.12103445    -5501.61531626
  entropy T*S    EENTRO =        -0.00000216
  eigenvalues    EBANDS =      -540.13184012
  atomic energy  EATOM  =      4831.84262874
  Solvation  Ediel_sol  =         0.00000000
  ---------------------------------------------------
  free energy    TOTEN  =       -41.98149179 eV

  energy without entropy =      -41.98148963  energy(sigma->0) =      -41.98149071


--------------------------------------------------------------------------------------------------------




--------------------------------------- Iteration      1(  17)  ---------------------------------------


    POTLOK:  cpu time    0.0547: real time    0.0574
    SETDIJ:  cpu time    0.0055: real time    0.0055
     EDDAV:  cpu time    0.3622: real time    0.3628
       DOS:  cpu time    0.0006: real time    0.0006
    --------------------------------------------
      LOOP:  cpu time    0.4230: real time    0.4263

 eigenvalue-minimisations  :   376
 total energy-change (2. order) : 0.4709473E-06  (-0.5107200E-06)
 number of electron      51.9999991 magnetization 
 augmentation part        1.5503910 magnetization 

 Free energy of the ion-electron system (eV)
  ---------------------------------------------------
  alpha Z        PSCENC =       160.27286088
  Ewald energy   TEWEN  =     -3027.14871781
  -Hartree energ DENC   =     -1689.63981024
  -exchange      EXHF   =         0.00000000
  -V(xc)+E(xc)   XCENC  =       180.31366599
  PAW double counting   =      5544.50482822    -5501.99919985
  entropy T*S    EENTRO =        -0.00000218
  eigenvalues    EBANDS =      -540.12774508
  atomic energy  EATOM  =      4831.84262874
  Solvation  Ediel_sol  =         0.00000000
  ---------------------------------------------------
  free energy    TOTEN  =       -41.98149132 eV

  energy without entropy =      -41.98148914  energy(sigma->0) =      -41.98149023


--------------------------------------------------------------------------------------------------------




 average (electrostatic) potential at core
  the test charge radii are     1.0818  0.9698
  (the norm of the test charge is              1.0000)
       1 -75.8703       2 -76.0120       3 -85.7618       4 -85.4989       5 -85.7192
       6 -85.6786
 
 
 
 E-fermi :   6.3592     XC(G=0): -10.3160     alpha+bet :-12.2268

 Fermi energy:         6.3591526646

 k-point     1 :       0.2500    0.2500    0.0000
  band No.  band energies     occupation 
      1     -55.2213      2.00000
      2     -55.0525      2.00000
      3     -29.4586      2.00000
      4     -29.3717      2.00000
      5     -29.3174      2.00000
      6     -29.2944      2.00000
      7     -29.2319      2.00000
      8     -28.9703      2.00000
      9      -6.6712      2.00000
     10      -6.4449      2.00000
     11      -6.3937      2.00000
     12      -5.4846      2.00000
     13       0.5025      2.00000
     14       0.7119      2.00000
     15       0.9587      2.00000
     16       1.7436      2.00000
     17       1.9908      2.00000
     18       2.1976      2.00000
     19       2.5773      2.00000
     20       2.6867      2.00000
     21       2.8158      2.00000
     22       3.6204      2.00000
     23       3.8214      2.00000
     24       4.0736      2.00000
     25       5.1150      2.00000
     26       5.7076      2.00000
     27       6.7063      0.00000
     28       7.7598      0.00000
     29       8.0806      0.00000
     30       8.4459      0.00000
     31       8.6138      0.00000
     32       8.7494      0.00000

 k-point     2 :      -0.2500    0.5000    0.0000
  band No.  band energies     occupation 
      1     -55.2213      2.00000
      2     -55.0527      2.00000
      3     -29.4577      2.00000
      4     -29.3717      2.00000
      5     -29.3183      2.00000
      6     -29.2787      2.00000
      7     -29.1447      2.00000
      8     -29.0729      2.00000
      9      -6.6763      2.00000
     10      -6.4462      2.00000
     11      -6.3879      2.00000
     12      -5.4856      2.00000
     13       0.5114      2.00000
     14       0.7127      2.00000
     15       0.9201      2.00000
     16       1.8277      2.00000
     17       1.9804      2.00000
     18       2.2699      2.00000
     19       2.5203      2.00000
     20       2.7409      2.00000
     21       2.8697      2.00000
     22       3.4695      2.00000
     23       3.9518      2.00000
     24       4.0708      2.00000
     25       5.1120      2.00000
     26       5.5293      2.00000
     27       6.7432      0.00000
     28       7.7634      0.00000
     29       7.9365      0.00000
     30       8.4369      0.00000
     31       8.7146      0.00000
     32       8.7778      0.00000

 k-point     3 :       0.5000    0.2500    0.0000
  band No.  band energies     occupation 
      1     -55.2213      2.00000
      2     -55.0526      2.00000
      3     -29.4593      2.00000
      4     -29.3717      2.00000
      5     -29.3167      2.00000
      6     -29.2789      2.00000
      7     -29.2303      2.00000
      8     -28.9870      2.00000
      9      -6.6744      2.00000
     10      -6.4452      2.00000
     11      -6.3949      2.00000
     12      -5.4767      2.00000
     13       0.5077      2.00000
     14       0.7152      2.00000
     15       0.9816      2.00000
     16       1.7867      2.00000
     17       1.9383      2.00000
     18       2.2121      2.00000
     19       2.5318      2.00000
     20       2.6830      2.00000
     21       2.8268      2.00000
     22       3.5884      2.00000
     23       3.8216      2.00000
     24       4.1354      2.00000
     25       5.1112      2.00000
     26       5.7359      2.00000
     27       6.6289      0.00000
     28       7.7686      0.00000
     29       8.1363      0.00000
     30       8.4507      0.00000
     31       8.6366      0.00000
     32       8.7844      0.00000

 k-point     4 :      -0.2500    0.2500    0.0000
  band No.  band energies     occupation 
      1     -55.2392      2.00000
      2     -55.0694      2.00000
      3     -29.4075      2.00000
      4     -29.3478      2.00000
      5     -29.3014      2.00000
      6     -29.2081      2.00000
      7     -29.0772      2.00000
      8     -28.9456      2.00000
      9      -7.6771      2.00000
     10      -7.1604      2.00000
     11      -6.9001      2.00000
     12      -6.2467      2.00000
     13       0.5263      2.00000
     14       1.3973      2.00000
     15       1.7015      2.00000
     16       1.9513      2.00000
     17       2.1984      2.00000
     18       3.1160      2.00000
     19       3.2647      2.00000
     20       3.5409      2.00000
     21       3.8290      2.00000
     22       3.9509      2.00000
     23       4.4392      2.00000
     24       4.8859      2.00000
     25       4.9981      2.00000
     26       6.1365      2.00000
     27       6.5038      0.00004
     28       7.1408      0.00000
     29       7.8510      0.00000
     30       7.9519      0.00000
     31       8.4748      0.00000
     32       8.8250      0.00000

 k-point     5 :      -0.2500    0.0000    0.0000
  band No.  band energies     occupation 
      1     -55.2392      2.00000
      2     -55.0692      2.00000
      3     -29.4075      2.00000
      4     -29.3487      2.00000
      5     -29.3022      2.00000
      6     -29.2072      2.00000
      7     -29.1616      2.00000
      8     -28.8607      2.00000
      9      -7.6744      2.00000
     10      -7.1520      2.00000
     11      -6.8948      2.00000
     12      -6.2637      2.00000
     13       0.5268      2.00000
     14       1.4695      2.00000
     15       1.7449      2.00000
     16       1.9204      2.00000
     17       2.2098      2.00000
     18       2.9885      2.00000
     19       3.1197      2.00000
     20       3.5703      2.00000
     21       3.7065      2.00000
     22       3.8294      2.00000
     23       4.3957      2.00000
     24       4.9074      2.00000
     25       5.2992      2.00000
     26       5.9452      2.00000
     27       6.8176      0.00000
     28       7.3077      0.00000
     29       7.9265      0.00000
     30       7.9569      0.00000
     31       8.4104      0.00000
     32       8.9009      0.00000

 k-point     6 :       0.0000   -0.2500    0.0000
  band No.  band energies     occupation 
      1     -55.2392      2.00000
      2     -55.0693      2.00000
      3     -29.4075      2.00000
      4     -29.3471      2.00000
      5     -29.3025      2.00000
      6     -29.2088      2.00000
      7     -29.1056      2.00000
      8     -28.9165      2.00000
      9      -7.6754      2.00000
     10      -7.1501      2.00000
     11      -6.8970      2.00000
     12      -6.2654      2.00000
     13       0.5333      2.00000
     14       1.4340      2.00000
     15       1.6629      2.00000
     16       1.9526      2.00000
     17       2.1885      2.00000
     18       3.1137      2.00000
     19       3.1605      2.00000
     20       3.5737      2.00000
     21       3.8270      2.00000
     22       3.9275      2.00000
     23       4.3624      2.00000
     24       4.8982      2.00000
     25       5.0953      2.00000
     26       6.2145      1.99996
     27       6.7177      0.00000
     28       6.9531      0.00000
     29       7.8988      0.00000
     30       7.9505      0.00000
     31       8.4542      0.00000
     32       8.9314      0.00000


--------------------------------------------------------------------------------------------------------


 soft charge-density along one line, spin component           1
         0         1         2         3         4         5         6         7         8         9
 total charge-density along one line
 
 pseudopotential strength for first ion, spin component:           1
 -5.072  11.431   0.000  -0.006   0.005  -0.002  -0.004  -0.002
 11.431   3.260  -0.002  -0.004  -0.001   0.001   0.004  -0.002
  0.000  -0.002 -18.110  -0.008   0.016   8.930   0.008  -0.017
 -0.006  -0.004  -0.008 -18.170  -0.004   0.008   8.999   0.006
  0.005  -0.001   0.016  -0.004 -18.139  -0.017   0.006   8.963
 -0.002   0.001   8.930   0.008  -0.017   5.739  -0.004   0.009
 -0.004   0.004   0.008   8.999   0.006  -0.004   5.701  -0.004
 -0.002  -0.002  -0.017   0.006   8.963   0.009  -0.004   5.721
  0.019  -0.010   0.004   0.001   0.003  -0.001  -0.000  -0.003
 -0.010   0.005   0.002   0.002   0.001  -0.003  -0.002  -0.000
 -0.032   0.018   0.000  -0.001  -0.005   0.001  -0.003   0.001
 -0.005   0.003   0.001  -0.001   0.001  -0.000   0.001  -0.003
 -0.018   0.010   0.001  -0.000   0.003   0.000   0.000  -0.001
  0.019  -0.011   0.004   0.001   0.003  -0.001  -0.000  -0.003
 -0.010   0.005   0.002   0.002   0.001  -0.003  -0.002  -0.000
 -0.033   0.019   0.000  -0.001  -0.005   0.001  -0.003   0.001
 -0.005   0.004   0.001  -0.001   0.001  -0.000   0.001  -0.003
 -0.018   0.011   0.001  -0.000   0.003  -0.000   0.000  -0.001
 total augmentation occupancy for first ion, spin component:           1
  1.995  -0.042   0.000   0.001  -0.000   0.000   0.001  -0.001  -0.031   0.018   0.054   0.004   0.030   0.028  -0.016  -0.049
 -0.042   1.154   0.003   0.014  -0.008  -0.010  -0.053   0.027   0.086   0.070  -0.371  -0.238  -0.146  -0.087  -0.090   0.374
  0.000   0.003   1.997   0.000  -0.000  -0.041   0.001   0.001   0.001   0.007   0.005  -0.002   0.000  -0.001   0.005  -0.003
  0.001   0.014   0.000   1.997   0.000   0.001  -0.047  -0.003   0.003   0.002   0.002  -0.019  -0.001   0.002   0.003  -0.003
 -0.000  -0.008  -0.000   0.000   1.997   0.001  -0.003  -0.043  -0.007  -0.002  -0.006   0.009  -0.001   0.008   0.002   0.001
  0.000  -0.010  -0.041   0.001   0.001   0.073  -0.004  -0.002  -0.024   0.212   0.013   0.024   0.139   0.020  -0.236  -0.018
  0.001  -0.053   0.001  -0.047  -0.003  -0.004   0.101   0.014   0.003   0.028  -0.070  -0.077  -0.031  -0.022  -0.043   0.063
 -0.001   0.027   0.001  -0.003  -0.043  -0.002   0.014   0.079   0.153   0.022  -0.041   0.135  -0.024  -0.145  -0.021   0.057
 -0.031   0.086   0.001   0.003  -0.007  -0.024   0.003   0.153   1.840  -0.027  -0.118   0.567  -0.057  -1.656  -0.087   0.098
  0.018   0.070   0.007   0.002  -0.002   0.212   0.028   0.022  -0.027   2.410  -0.185  -0.019   0.618  -0.088  -2.743   0.219
  0.054  -0.371   0.005   0.002  -0.006   0.013  -0.070  -0.041  -0.118  -0.185   1.635   0.547   0.200   0.100   0.217  -1.848
  0.004  -0.238  -0.002  -0.019   0.009   0.024  -0.077   0.135   0.567  -0.019   0.547   2.781   0.085  -0.780   0.151  -0.690
  0.030  -0.146   0.000  -0.001  -0.001   0.139  -0.031  -0.024  -0.057   0.618   0.200   0.085   1.781   0.012  -0.871  -0.151
  0.028  -0.087  -0.001   0.002   0.008   0.020  -0.022  -0.145  -1.656  -0.088   0.100  -0.780   0.012   2.431   0.158  -0.113
 -0.016  -0.090   0.005   0.003   0.002  -0.236  -0.043  -0.021  -0.087  -2.743   0.217   0.151  -0.871   0.158   3.765  -0.266
 -0.049   0.374  -0.003  -0.003   0.001  -0.018   0.063   0.057   0.098   0.219  -1.848  -0.690  -0.151  -0.113  -0.266   2.834
 -0.004   0.291   0.003   0.005  -0.000  -0.023   0.118  -0.157  -0.787   0.151  -0.690  -3.404  -0.183   0.991  -0.227   0.842
 -0.027   0.129  -0.000  -0.003  -0.000  -0.128   0.040   0.023   0.012  -0.871  -0.148  -0.184  -1.747  -0.004   1.134   0.153


------------------------ aborting loop because EDIFF is reached ----------------------------------------


    CHARGE:  cpu time    0.0368: real time    0.0369
    FORLOC:  cpu time    0.0047: real time    0.0047
    FORNL :  cpu time    0.0730: real time    0.0730
    STRESS:  cpu time    0.1510: real time    0.1510
    FORCOR:  cpu time    0.0590: real time    0.0590
    FORHAR:  cpu time    0.0146: real time    0.0146
    MIXING:  cpu time    0.0019: real time    0.0019
    OFIELD:  cpu time    0.0000: real time    0.0000

  FORCE on cell =-STRESS in cart. coord.  units (eV):
  Direction    XX          YY          ZZ          XY          YZ          ZX
  --------------------------------------------------------------------------------------
  Alpha Z   160.27286   160.27286   160.27286
  Ewald    -260.92423  -304.23650 -2461.99088   -10.59074   -11.44902    35.01211
  Hartree  1188.10673  1171.86986  -670.31719    -3.33485    -4.94205    12.80095
  E(xc)    -218.06141  -218.14342  -218.26034    -0.03765    -0.01893     0.04651
  Local   -1931.71585 -1879.02877  2127.46040     9.13390    19.36029   -49.30225
  n-local   235.99284   236.13712   245.04280     0.72772    -1.27893     2.78722
  augment    -1.50597    -0.92412    -4.42659     0.12656     0.13332    -0.71935
  Kinetic   824.80964   832.88847   814.11096     5.20489    -2.49770     0.20217
  Fock        0.00000     0.00000     0.00000     0.00000     0.00000     0.00000
  -------------------------------------------------------------------------------------
  Total      -3.02540    -1.16449    -8.10797     1.22982    -0.69300     0.82736
  in kB     -41.05550   -15.80248  -110.02741    16.68904    -9.40418    11.22748
  external pressure =      -55.63 kB  Pullay stress =        0.00 kB


 VOLUME and BASIS-vectors are now :
 -----------------------------------------------------------------------------
  energy-cutoff  :      500.00
  volume of cell :      118.07
      direct lattice vectors                 reciprocal lattice vectors
     1.596118927 -2.764559076  0.000000000     0.313259865 -0.180860668  0.000000000
     1.596118927  2.764559076  0.000000000     0.313259865  0.180860668  0.000000000
     0.000000000  0.000000000 13.378293991     0.000000000  0.000000000  0.074747946

  length of vectors
     3.192237854  3.192237854 13.378293991     0.361721335  0.361721335  0.074747946


 FORCES acting on ions
    electron-ion (+dipol)            ewald-force                    non-local-force                 convergence-correction
 -----------------------------------------------------------------------------------------------
   0.196E+02 -.629E+01 -.145E+02   -.181E+02 0.608E+01 0.130E+02   -.161E+01 0.699E+00 0.262E+01   -.547E-07 -.240E-06 -.768E-03
   -.842E-01 0.788E-01 -.764E+02   0.687E-01 -.742E-01 0.765E+02   0.101E-01 -.577E-02 -.902E-01   0.562E-04 -.412E-04 -.463E-02
   0.119E+01 -.391E+00 0.382E+03   -.125E+01 0.424E+00 -.386E+03   0.232E-01 -.127E-01 0.487E+01   -.395E-04 0.196E-04 -.144E-02
   -.191E+02 0.620E+01 -.228E+03   0.191E+02 -.623E+01 0.229E+03   0.338E+00 -.409E+00 -.455E+01   -.259E-04 -.147E-04 -.227E-03
   -.260E-01 0.275E-01 -.447E+03   -.109E-02 0.372E-03 0.452E+03   0.127E-01 -.151E-01 -.511E+01   0.738E-05 0.705E-06 0.308E-02
   0.102E-01 0.244E+00 0.381E+03   0.185E+00 -.200E+00 -.385E+03   -.363E+00 -.119E+00 0.474E+01   0.440E-04 -.216E-04 -.149E-02
 -----------------------------------------------------------------------------------------------
   0.159E+01 -.137E+00 -.247E+01   -.361E-13 0.577E-14 0.114E-12   -.159E+01 0.137E+00 0.248E+01   0.422E-04 -.574E-04 -.547E-02
 
 
 POSITION                                       TOTAL-FORCE (eV/Angst)
 -----------------------------------------------------------------------------------
      1.59612     -0.92152      3.34457        -0.167454      0.482569      1.175437
      1.59612      0.92152     10.03372        -0.005299     -0.001253      0.012207
      1.59612     -0.92152      8.46956        -0.039727      0.020439      0.400864
      1.04285      1.53002      5.50279         0.394351     -0.439896     -2.700016
      1.59612     -0.92152     11.59788        -0.014443      0.012763     -0.308537
      1.59612      0.92152      1.78041        -0.167427     -0.074622      1.420045
 -----------------------------------------------------------------------------------
    total drift:                                0.000015     -0.000007      0.000253


--------------------------------------------------------------------------------------------------------



  FREE ENERGIE OF THE ION-ELECTRON SYSTEM (eV)
  ---------------------------------------------------
  free  energy   TOTEN  =       -41.98149132 eV

  energy  without entropy=      -41.98148914  energy(sigma->0) =      -41.98149023
 


--------------------------------------------------------------------------------------------------------


    POTLOK:  cpu time    0.0602: real time    0.0602


--------------------------------------------------------------------------------------------------------


 stress matrix after NEB project (eV)
     -3.02540      1.22982      0.82736
      1.22982     -1.16449     -0.69300
      0.82736     -0.69300     -8.10797
  FORCES: max atom, RMS     2.763894    1.389858
  FORCE total and by dimension    3.404444    2.700016
  Stress total and by dimension    9.033423    8.107970
 writing wavefunctions
     LOOP+:  cpu time    9.4750: real time    9.5438
    4ORBIT:  cpu time    0.0000: real time    0.0000

 total amount of memory used by VASP MPI-rank0    38677. kBytes
=======================================================================

   base      :      30000. kBytes
   nonl-proj :       1371. kBytes
   fftplans  :       2330. kBytes
   grid      :       3750. kBytes
   one-center:         31. kBytes
   wavefun   :       1195. kBytes
 
  
  
 General timing and accounting informations for this job:
 ========================================================
  
                  Total CPU time used (sec):       11.098
                            User time (sec):       10.257
                          System time (sec):        0.841
                         Elapsed time (sec):       11.592
  
                   Maximum memory used (kb):      125000.
                   Average memory used (kb):          N/A
  
                          Minor page faults:        26904
                          Major page faults:            0
                 Voluntary context switches:          959
