 vasp.6.2.0 18Jan21 (build Jul 31 2023 14:19:35) complex                        
  
 executed on             LinuxIFC date 2025.09.17  14:41:31
 running on    8 total cores
 distrk:  each k-point on    8 cores,    1 groups
 distr:  one band on NCORE=   4 cores,    2 groups


--------------------------------------------------------------------------------------------------------


 INCAR:
   SYSTEM = MoS2_SinglePoint_vdW_Coulomb
   PREC = Accurate
   ENCUT = 500
   GGA = PE
   ALGO = Normal
   NELM = 100
   NELMIN = 5
   EDIFF = 1E-6
   ISMEAR = 0
   SIGMA = 0.05
   IBRION = -1
   NSW = 0
   LREAL = .FALSE.
   LCHARG = .TRUE.
   LWAVE = .TRUE.
   NWRITE = 1
   NCORE = 4

 POTCAR:    PAW_PBE Mo_sv 02Feb2006               
 POTCAR:    PAW_PBE S 06Sep2000                   
 POTCAR:    PAW_PBE Mo_sv 02Feb2006               
  local pseudopotential read in
  partial core-charges read in
  partial kinetic energy density read in
  atomic valenz-charges read in
  non local Contribution for L=           0  read in
    real space projection operators read in
  non local Contribution for L=           0  read in
    real space projection operators read in
  non local Contribution for L=           1  read in
    real space projection operators read in
  non local Contribution for L=           1  read in
    real space projection operators read in
  non local Contribution for L=           2  read in
    real space projection operators read in
  non local Contribution for L=           2  read in
    real space projection operators read in
    PAW grid and wavefunctions read in
 
   number of l-projection  operators is LMAX  =           6
   number of lm-projection operators is LMMAX =          18
 
 POTCAR:    PAW_PBE S 06Sep2000                   
  local pseudopotential read in
  partial core-charges read in
  partial kinetic energy density read in
  atomic valenz-charges read in
  non local Contribution for L=           0  read in
    real space projection operators read in
  non local Contribution for L=           0  read in
    real space projection operators read in
  non local Contribution for L=           1  read in
    real space projection operators read in
  non local Contribution for L=           1  read in
    real space projection operators read in
    PAW grid and wavefunctions read in
 
   number of l-projection  operators is LMAX  =           4
   number of lm-projection operators is LMMAX =           8
 
  PAW_PBE Mo_sv 02Feb2006               :
 energy of atom  1       EATOM=-1862.2866
 kinetic energy error for atom=    0.0074 (will be added to EATOM!!)
  PAW_PBE S 06Sep2000                   :
 energy of atom  2       EATOM= -276.8230
 kinetic energy error for atom=    0.0020 (will be added to EATOM!!)
 
 
 POSCAR: Mo S
  positions in direct lattice
  No initial velocities read in
 exchange correlation table for  LEXCH =        8
   RHO(1)=    0.500       N(1)  =     2000
   RHO(2)=  100.500       N(2)  =     4000

 VTST: version 4.0, (05/15/20)

 CHAIN: initializing optimizer
 
 OPT: Using VASP Dynamics algorithm
 CHAIN: Read ICHAIN            0
 
 POSCAR: Mo S
  positions in direct lattice
  No initial velocities read in
 


--------------------------------------------------------------------------------------------------------


 ion  position               nearest neighbor table
   1  0.667  0.333  0.250-   6 2.42   6 2.42   6 2.42   4 2.42
   2  0.333  0.667  0.750-   3 2.42   5 2.42   3 2.42   5 2.42   3 2.42   5 2.42
   3  0.667  0.333  0.633-   2 2.42   2 2.42   2 2.42
   4  0.808  0.192  0.421-   1 2.42
   5  0.667  0.333  0.867-   2 2.42   2 2.42   2 2.42
   6  0.333  0.667  0.133-   1 2.42   1 2.42   1 2.42
 
  LATTYP: Found a hexagonal cell.
 ALAT       =     3.1922378540
 C/A-ratio  =     4.1908825730
  
  Lattice vectors:
  
 A1 = (   1.5961189270,  -2.7645590765,   0.0000000000)
 A2 = (   1.5961189270,   2.7645590765,   0.0000000000)
 A3 = (   0.0000000000,   0.0000000000,  13.3782939911)


Analysis of symmetry for initial positions (statically):
=====================================================================
 Subroutine PRICEL returns:
 Original cell was already a primitive cell.
 

 Routine SETGRP: Setting up the symmetry group for a 
 hexagonal supercell.


 Subroutine GETGRP returns: Found  2 space group operations
 (whereof  2 operations were pure point group operations)
 out of a pool of 24 trial point group operations.


The static configuration has the point symmetry C_1h.


Analysis of symmetry for dynamics (positions and initial velocities):
=====================================================================
 Subroutine PRICEL returns:
 Original cell was already a primitive cell.
 

 Routine SETGRP: Setting up the symmetry group for a 
 hexagonal supercell.


 Subroutine GETGRP returns: Found  2 space group operations
 (whereof  2 operations were pure point group operations)
 out of a pool of 24 trial point group operations.


The dynamic configuration has the point symmetry C_1h.


 Subroutine INISYM returns: Found  2 space group operations
 (whereof  2 operations are pure point group operations),
 and found     1 'primitive' translations


----------------------------------------------------------------------------------------

                                     Primitive cell                                     

  volume of cell :     118.0652

  direct lattice vectors                    reciprocal lattice vectors
     1.596118927 -2.764559076  0.000000000     0.313259865 -0.180860668  0.000000000
     1.596118927  2.764559076  0.000000000     0.313259865  0.180860668  0.000000000
     0.000000000  0.000000000 13.378293991     0.000000000  0.000000000  0.074747946

  length of vectors
     3.192237854  3.192237854 13.378293991     0.361721335  0.361721335  0.074747946

  position of ions in fractional coordinates (direct lattice)
     0.666666667  0.333333333  0.250000000
     0.333333333  0.666666667  0.750000000
     0.666666667  0.333333333  0.633082000
     0.808069709  0.191930291  0.420977437
     0.666666667  0.333333333  0.866918000
     0.333333333  0.666666667  0.133082000

  ion indices of the primitive-cell ions
   primitive index   ion index
                 1           1
                 2           2
                 3           3
                 4           4
                 5           5
                 6           6

----------------------------------------------------------------------------------------

 
 
 KPOINTS: K-Spacing Value to Generate K-Mesh: 0.15

Automatic generation of k-mesh.
 Grid dimensions read from file:
 generate k-points for:    2    2    1

 Generating k-lattice:

  Cartesian coordinates                     Fractional coordinates (reciprocal lattice)
     0.156629933 -0.090430334  0.000000000     0.500000000  0.000000000  0.000000000
     0.156629933  0.090430334  0.000000000     0.000000000  0.500000000  0.000000000
     0.000000000  0.000000000  0.074747946     0.000000000  0.000000000  1.000000000

  Length of vectors
     0.180860668  0.180860668  0.074747946

  Shift w.r.t. Gamma in fractional coordinates (k-lattice)
     0.500000000  0.500000000  0.000000000

 
 Subroutine IBZKPT returns following result:
 ===========================================
 
 Found      4 irreducible k-points:
 
 Following reciprocal coordinates:
            Coordinates               Weight
  0.250000  0.250000  0.000000      2.000000
 -0.250000  0.500000  0.000000      4.000000
 -0.250000  0.250000  0.000000      2.000000
 -0.250000  0.000000  0.000000      4.000000
 
 Following cartesian coordinates:
            Coordinates               Weight
  0.156630  0.000000  0.000000      2.000000
  0.078315  0.135646  0.000000      4.000000
  0.000000  0.090430  0.000000      2.000000
 -0.078315  0.045215  0.000000      4.000000
 


--------------------------------------------------------------------------------------------------------




 Dimension of arrays:
   k-points           NKPTS =      4   k-points in BZ     NKDIM =      4   number of bands    NBANDS=     32
   number of dos      NEDOS =    301   number of ions     NIONS =      6
   non local maximal  LDIM  =      6   non local SUM 2l+1 LMDIM =     18
   total plane-waves  NPLWV =  56448
   max r-space proj   IRMAX =      1   max aug-charges    IRDMAX=  21106
   dimension x,y,z NGX =    24 NGY =   24 NGZ =   98
   dimension x,y,z NGXF=    48 NGYF=   48 NGZF=  196
   support grid    NGXF=    48 NGYF=   48 NGZF=  196
   ions per type =               2   4
   NGX,Y,Z   is equivalent  to a cutoff of  12.50, 12.50, 12.18 a.u.
   NGXF,Y,Z  is equivalent  to a cutoff of  25.00, 25.00, 24.36 a.u.

 SYSTEM =  MoS2_SinglePoint_vdW_Coulomb           
 POSCAR =  Mo S                                    

 Startparameter for this run:
   NWRITE =      1    write-flag & timer
   PREC   = accura    normal or accurate (medium, high low for compatibility)
   ISTART =      0    job   : 0-new  1-cont  2-samecut
   ICHARG =      2    charge: 1-file 2-atom 10-const
   ISPIN  =      1    spin polarized calculation?
   LNONCOLLINEAR =      F non collinear calculations
   LSORBIT =      F    spin-orbit coupling
   INIWAV =      1    electr: 0-lowe 1-rand  2-diag
   LASPH  =      F    aspherical Exc in radial PAW
   METAGGA=      F    non-selfconsistent MetaGGA calc.

 Electronic Relaxation 1
   ENCUT  =  500.0 eV  36.75 Ry    6.06 a.u.   5.82  5.82 24.39*2*pi/ulx,y,z
   ENINI  =  500.0     initial cutoff
   ENAUG  =  446.0 eV  augmentation charge cutoff
   NELM   =    100;   NELMIN=  5; NELMDL= -5     # of ELM steps 
   EDIFF  = 0.1E-05   stopping-criterion for ELM
   LREAL  =      F    real-space projection
   NLSPLINE    = F    spline interpolate recip. space projectors
   LCOMPAT=      F    compatible to vasp.4.4
   GGA_COMPAT  = T    GGA compatible to vasp.4.4-vasp.4.6
   LMAXPAW     = -100 max onsite density
   LMAXMIX     =    2 max onsite mixed and CHGCAR
   VOSKOWN=      0    Vosko Wilk Nusair interpolation
   ROPT   =    0.00000   0.00000
 Ionic relaxation
   EDIFFG = 0.1E-04   stopping-criterion for IOM
   NSW    =      0    number of steps for IOM
   NBLOCK =      1;   KBLOCK =      1    inner block; outer block 
   IBRION =     -1    ionic relax: 0-MD 1-quasi-New 2-CG
   NFREE  =      0    steps in history (QN), initial steepest desc. (CG)
   ISIF   =      2    stress and relaxation
   IWAVPR =     10    prediction:  0-non 1-charg 2-wave 3-comb
   ISYM   =      2    0-nonsym 1-usesym 2-fastsym
   LCORR  =      T    Harris-Foulkes like correction to forces

   POTIM  = 0.5000    time-step for ionic-motion
   TEIN   =    0.0    initial temperature
   TEBEG  =    0.0;   TEEND  =   0.0 temperature during run
   SMASS  =  -3.00    Nose mass-parameter (am)
   estimated Nose-frequenzy (Omega)   =  0.10E-29 period in steps = 0.13E+47 mass=  -0.233E-27a.u.
   SCALEE = 1.0000    scale energy and forces
   NPACO  =    256;   APACO  = 16.0  distance and # of slots for P.C.
   PSTRESS=    0.0 pullay stress

  Mass of Ions in am
   POMASS =  95.94 32.07
  Ionic Valenz
   ZVAL   =  14.00  6.00
  Atomic Wigner-Seitz radii
   RWIGS  =  -1.00 -1.00
  virtual crystal weights 
   VCA    =   1.00  1.00
   NELECT =      52.0000    total number of electrons
   NUPDOWN=      -1.0000    fix difference up-down

 DOS related values:
   EMIN   =  10.00;   EMAX   =-10.00  energy-range for DOS
   EFERMI =   0.00
   ISMEAR =     0;   SIGMA  =   0.05  broadening in eV -4-tet -1-fermi 0-gaus

 Electronic relaxation 2 (details)
   IALGO  =     38    algorithm
   LDIAG  =      T    sub-space diagonalisation (order eigenvalues)
   LSUBROT=      F    optimize rotation matrix (better conditioning)
   TURBO    =      0    0=normal 1=particle mesh
   IRESTART =      0    0=no restart 2=restart with 2 vectors
   NREBOOT  =      0    no. of reboots
   NMIN     =      0    reboot dimension
   EREF     =   0.00    reference energy to select bands
   IMIX   =      4    mixing-type and parameters
     AMIX     =   0.40;   BMIX     =  1.00
     AMIX_MAG =   1.60;   BMIX_MAG =  1.00
     AMIN     =   0.10
     WC   =   100.;   INIMIX=   1;  MIXPRE=   1;  MAXMIX= -45

 Intra band minimization:
   WEIMIN = 0.0000     energy-eigenvalue tresh-hold
   EBREAK =  0.78E-08  absolut break condition
   DEPER  =   0.30     relativ break condition  

   TIME   =   0.40     timestep for ELM

  volume/ion in A,a.u.               =      19.68       132.79
  Fermi-wavevector in a.u.,A,eV,Ry     =   1.245571  2.353789 21.108736  1.551448
  Thomas-Fermi vector in A             =   2.379788
 
 Write flags
   LWAVE        =      T    write WAVECAR
   LDOWNSAMPLE  =      F    k-point downsampling of WAVECAR
   LCHARG       =      T    write CHGCAR
   LVTOT        =      F    write LOCPOT, total local potential
   LVHAR        =      F    write LOCPOT, Hartree potential only
   LELF         =      F    write electronic localiz. function (ELF)
   LORBIT       =      0    0 simple, 1 ext, 2 COOP (PROOUT), +10 PAW based schemes


 Dipole corrections
   LMONO  =      F    monopole corrections only (constant potential shift)
   LDIPOL =      F    correct potential (dipole corrections)
   IDIPOL =      0    1-x, 2-y, 3-z, 4-all directions 
   EPSILON=  1.0000000 bulk dielectric constant

 Exchange correlation treatment:
   GGA     =    PE    GGA type
   LEXCH   =     8    internal setting for exchange type
   VOSKOWN=      0    Vosko Wilk Nusair interpolation
   LHFCALC =     F    Hartree Fock is set to
   LHFONE  =     F    Hartree Fock one center treatment
   AEXX    =    0.0000 exact exchange contribution

 Linear response parameters
   LEPSILON=     F    determine dielectric tensor
   LRPA    =     F    only Hartree local field effects (RPA)
   LNABLA  =     F    use nabla operator in PAW spheres
   LVEL    =     F    velocity operator in full k-point grid
   LINTERFAST=   F  fast interpolation
   KINTER  =     0    interpolate to denser k-point grid
   CSHIFT  =0.1000    complex shift for real part using Kramers Kronig
   OMEGAMAX=  -1.0    maximum frequency
   DEG_THRESHOLD= 0.2000000E-02 threshold for treating states as degnerate
   RTIME   =   -0.100 relaxation time in fs
  (WPLASMAI=    0.000 imaginary part of plasma frequency in eV, 0.658/RTIME)
   DFIELD  = 0.0000000 0.0000000 0.0000000 field for delta impulse in time
 
 Orbital magnetization related:
   ORBITALMAG=     F  switch on orbital magnetization
   LCHIMAG   =     F  perturbation theory with respect to B field
   DQ        =  0.001000  dq finite difference perturbation B field
   LLRAUG    =     F  two centre corrections for induced B field



--------------------------------------------------------------------------------------------------------


 Static calculation
 charge density and potential will be updated during run
 non-spin polarized calculation
 Variant of blocked Davidson
 Davidson routine will perform the subspace rotation
 perform sub-space diagonalisation
    after iterative eigenvector-optimisation
 modified Broyden-mixing scheme, WC =      100.0
 initial mixing is a Kerker type mixing with AMIX =  0.4000 and BMIX =      1.0000
 Hartree-type preconditioning will be used
 using additional bands            6
 reciprocal scheme for non local part
 use partial core corrections
 calculate Harris-corrections to forces 
   (improved forces if not selfconsistent)
 use gradient corrections 
 use of overlap-Matrix (Vanderbilt PP)
 Gauss-broadening in eV      SIGMA  =   0.05


--------------------------------------------------------------------------------------------------------


  energy-cutoff  :      500.00
  volume of cell :      118.07
      direct lattice vectors                 reciprocal lattice vectors
     1.596118927 -2.764559076  0.000000000     0.313259865 -0.180860668  0.000000000
     1.596118927  2.764559076  0.000000000     0.313259865  0.180860668  0.000000000
     0.000000000  0.000000000 13.378293991     0.000000000  0.000000000  0.074747946

  length of vectors
     3.192237854  3.192237854 13.378293991     0.361721335  0.361721335  0.074747946


 
 k-points in units of 2pi/SCALE and weight: K-Spacing Value to Generate K-Mesh: 0.15
   0.15662993  0.00000000  0.00000000       0.167
   0.07831497  0.13564550  0.00000000       0.333
   0.00000000  0.09043033  0.00000000       0.167
  -0.07831497  0.04521517  0.00000000       0.333
 
 k-points in reciprocal lattice and weights: K-Spacing Value to Generate K-Mesh: 0.15
   0.25000000  0.25000000  0.00000000       0.167
  -0.25000000  0.50000000  0.00000000       0.333
  -0.25000000  0.25000000  0.00000000       0.167
  -0.25000000  0.00000000  0.00000000       0.333
 
 position of ions in fractional coordinates (direct lattice) 
   0.66666667  0.33333333  0.25000000
   0.33333333  0.66666667  0.75000000
   0.66666667  0.33333333  0.63308200
   0.80806971  0.19193029  0.42097744
   0.66666667  0.33333333  0.86691800
   0.33333333  0.66666667  0.13308200
 
 position of ions in cartesian coordinates  (Angst):
   1.59611893 -0.92151969  3.34457350
   1.59611893  0.92151969 10.03372049
   1.59611893 -0.92151969  8.46955712
   1.59611893 -1.70335382  5.63195992
   1.59611893 -0.92151969 11.59788387
   1.59611893  0.92151969  1.78041012
 


--------------------------------------------------------------------------------------------------------


 k-point   1 :   0.2500 0.2500 0.0000  plane waves:    3020
 k-point   2 :  -0.2500 0.5000 0.0000  plane waves:    3020
 k-point   3 :  -0.2500 0.2500 0.0000  plane waves:    2992
 k-point   4 :  -0.2500 0.0000 0.0000  plane waves:    2992

 maximum and minimum number of plane-waves per node :       764      745

 maximum number of plane-waves:      3020
 maximum index in each direction: 
   IXMAX=    6   IYMAX=    5   IZMAX=   24
   IXMIN=   -6   IYMIN=   -6   IZMIN=  -24


 parallel 3D FFT for wavefunctions:
    minimum data exchange during FFTs selected (reduces bandwidth)
 parallel 3D FFT for charge:
    minimum data exchange during FFTs selected (reduces bandwidth)


 total amount of memory used by VASP MPI-rank0    37866. kBytes
=======================================================================

   base      :      30000. kBytes
   nonl-proj :        950. kBytes
   fftplans  :       2329. kBytes
   grid      :       3750. kBytes
   one-center:         31. kBytes
   wavefun   :        806. kBytes
 
     INWAV:  cpu time    0.0000: real time    0.0001
 Broyden mixing: mesh for mixing (old mesh)
   NGX = 11   NGY = 11   NGZ = 49
  (NGX  = 48   NGY  = 48   NGZ  =196)
  gives a total of   5929 points

 initial charge density was supplied:
 charge density of overlapping atoms calculated
 number of electron      52.0000000 magnetization 
 keeping initial charge density in first step


--------------------------------------------------------------------------------------------------------


 Maximum index for augmentation-charges         2591 (set IRDMAX)


--------------------------------------------------------------------------------------------------------


 First call to EWALD:  gamma=   0.361
 Maximum number of real-space cells 4x 4x 1
 Maximum number of reciprocal cells 2x 2x 7

    FEWALD:  cpu time    0.0020: real time    0.0020


--------------------------------------- Iteration      1(   1)  ---------------------------------------


    POTLOK:  cpu time    0.0563: real time    0.0574
    SETDIJ:  cpu time    0.0055: real time    0.0055
     EDDAV:  cpu time    0.2662: real time    0.2664
       DOS:  cpu time    0.0006: real time    0.0006
    --------------------------------------------
      LOOP:  cpu time    0.3286: real time    0.3298

 eigenvalue-minimisations  :   288
 total energy-change (2. order) : 0.4099236E+03  (-0.2896306E+04)
 number of electron      52.0000000 magnetization 
 augmentation part       52.0000000 magnetization 

 Free energy of the ion-electron system (eV)
  ---------------------------------------------------
  alpha Z        PSCENC =       160.27286088
  Ewald energy   TEWEN  =     -3047.95130063
  -Hartree energ DENC   =     -1707.53905595
  -exchange      EXHF   =         0.00000000
  -V(xc)+E(xc)   XCENC  =       181.72676292
  PAW double counting   =      3865.57804258    -3815.84821480
  entropy T*S    EENTRO =        -0.02019347
  eigenvalues    EBANDS =       -58.13791741
  atomic energy  EATOM  =      4831.84262874
  Solvation  Ediel_sol  =         0.00000000
  ---------------------------------------------------
  free energy    TOTEN  =       409.92361287 eV

  energy without entropy =      409.94380634  energy(sigma->0) =      409.93370960


--------------------------------------------------------------------------------------------------------




--------------------------------------- Iteration      1(   2)  ---------------------------------------


     EDDAV:  cpu time    0.2673: real time    0.2702
       DOS:  cpu time    0.0002: real time    0.0002
    --------------------------------------------
      LOOP:  cpu time    0.2675: real time    0.2704

 eigenvalue-minimisations  :   296
 total energy-change (2. order) :-0.4306913E+03  (-0.4212618E+03)
 number of electron      52.0000000 magnetization 
 augmentation part       52.0000000 magnetization 

 Free energy of the ion-electron system (eV)
  ---------------------------------------------------
  alpha Z        PSCENC =       160.27286088
  Ewald energy   TEWEN  =     -3047.95130063
  -Hartree energ DENC   =     -1707.53905595
  -exchange      EXHF   =         0.00000000
  -V(xc)+E(xc)   XCENC  =       181.72676292
  PAW double counting   =      3865.57804258    -3815.84821480
  entropy T*S    EENTRO =        -0.00000000
  eigenvalues    EBANDS =      -488.84943619
  atomic energy  EATOM  =      4831.84262874
  Solvation  Ediel_sol  =         0.00000000
  ---------------------------------------------------
  free energy    TOTEN  =       -20.76771245 eV

  energy without entropy =      -20.76771245  energy(sigma->0) =      -20.76771245


--------------------------------------------------------------------------------------------------------




--------------------------------------- Iteration      1(   3)  ---------------------------------------


     EDDAV:  cpu time    0.2941: real time    0.2987
       DOS:  cpu time    0.0005: real time    0.0005
    --------------------------------------------
      LOOP:  cpu time    0.2946: real time    0.2992

 eigenvalue-minimisations  :   336
 total energy-change (2. order) :-0.2332749E+02  (-0.2306025E+02)
 number of electron      52.0000000 magnetization 
 augmentation part       52.0000000 magnetization 

 Free energy of the ion-electron system (eV)
  ---------------------------------------------------
  alpha Z        PSCENC =       160.27286088
  Ewald energy   TEWEN  =     -3047.95130063
  -Hartree energ DENC   =     -1707.53905595
  -exchange      EXHF   =         0.00000000
  -V(xc)+E(xc)   XCENC  =       181.72676292
  PAW double counting   =      3865.57804258    -3815.84821480
  entropy T*S    EENTRO =        -0.00997407
  eigenvalues    EBANDS =      -512.16695323
  atomic energy  EATOM  =      4831.84262874
  Solvation  Ediel_sol  =         0.00000000
  ---------------------------------------------------
  free energy    TOTEN  =       -44.09520356 eV

  energy without entropy =      -44.08522948  energy(sigma->0) =      -44.09021652


--------------------------------------------------------------------------------------------------------




--------------------------------------- Iteration      1(   4)  ---------------------------------------


     EDDAV:  cpu time    0.2851: real time    0.2897
       DOS:  cpu time    0.0005: real time    0.0005
    --------------------------------------------
      LOOP:  cpu time    0.2856: real time    0.2902

 eigenvalue-minimisations  :   320
 total energy-change (2. order) :-0.5103883E+00  (-0.5081142E+00)
 number of electron      52.0000000 magnetization 
 augmentation part       52.0000000 magnetization 

 Free energy of the ion-electron system (eV)
  ---------------------------------------------------
  alpha Z        PSCENC =       160.27286088
  Ewald energy   TEWEN  =     -3047.95130063
  -Hartree energ DENC   =     -1707.53905595
  -exchange      EXHF   =         0.00000000
  -V(xc)+E(xc)   XCENC  =       181.72676292
  PAW double counting   =      3865.57804258    -3815.84821480
  entropy T*S    EENTRO =        -0.00580653
  eigenvalues    EBANDS =      -512.68150910
  atomic energy  EATOM  =      4831.84262874
  Solvation  Ediel_sol  =         0.00000000
  ---------------------------------------------------
  free energy    TOTEN  =       -44.60559189 eV

  energy without entropy =      -44.59978536  energy(sigma->0) =      -44.60268862


--------------------------------------------------------------------------------------------------------




--------------------------------------- Iteration      1(   5)  ---------------------------------------


     EDDAV:  cpu time    0.2933: real time    0.2978
       DOS:  cpu time    0.0006: real time    0.0006
    CHARGE:  cpu time    0.0325: real time    0.0325
    MIXING:  cpu time    0.0014: real time    0.0014
    --------------------------------------------
      LOOP:  cpu time    0.3278: real time    0.3322

 eigenvalue-minimisations  :   328
 total energy-change (2. order) :-0.1447016E-01  (-0.1445710E-01)
 number of electron      51.9999992 magnetization 
 augmentation part        0.6465975 magnetization 

 Broyden mixing:
  rms(total) = 0.29329E+01    rms(broyden)= 0.29329E+01
  rms(prec ) = 0.30784E+01
  weight for this iteration     100.00

 Free energy of the ion-electron system (eV)
  ---------------------------------------------------
  alpha Z        PSCENC =       160.27286088
  Ewald energy   TEWEN  =     -3047.95130063
  -Hartree energ DENC   =     -1707.53905595
  -exchange      EXHF   =         0.00000000
  -V(xc)+E(xc)   XCENC  =       181.72676292
  PAW double counting   =      3865.57804258    -3815.84821480
  entropy T*S    EENTRO =        -0.00550753
  eigenvalues    EBANDS =      -512.69627826
  atomic energy  EATOM  =      4831.84262874
  Solvation  Ediel_sol  =         0.00000000
  ---------------------------------------------------
  free energy    TOTEN  =       -44.62006205 eV

  energy without entropy =      -44.61455452  energy(sigma->0) =      -44.61730828


--------------------------------------------------------------------------------------------------------




--------------------------------------- Iteration      1(   6)  ---------------------------------------


    POTLOK:  cpu time    0.0558: real time    0.0585
    SETDIJ:  cpu time    0.0054: real time    0.0054
     EDDAV:  cpu time    0.2699: real time    0.2700
       DOS:  cpu time    0.0006: real time    0.0006
    CHARGE:  cpu time    0.0315: real time    0.0315
    MIXING:  cpu time    0.0015: real time    0.0015
    --------------------------------------------
      LOOP:  cpu time    0.3646: real time    0.3673

 eigenvalue-minimisations  :   304
 total energy-change (2. order) : 0.3650608E-01  (-0.3829969E+01)
 number of electron      51.9999990 magnetization 
 augmentation part        2.3766783 magnetization 

 Broyden mixing:
  rms(total) = 0.15487E+01    rms(broyden)= 0.15487E+01
  rms(prec ) = 0.21372E+01
  weight for this iteration     100.00

 eigenvalues of (default mixing * dielectric matrix)
  average eigenvalue GAMMA=   0.9340
  0.9340

 Free energy of the ion-electron system (eV)
  ---------------------------------------------------
  alpha Z        PSCENC =       160.27286088
  Ewald energy   TEWEN  =     -3047.95130063
  -Hartree energ DENC   =     -1641.67203834
  -exchange      EXHF   =         0.00000000
  -V(xc)+E(xc)   XCENC  =       179.94229635
  PAW double counting   =      4433.71307863    -4390.96579727
  entropy T*S    EENTRO =        -0.00122080
  eigenvalues    EBANDS =      -569.76406352
  atomic energy  EATOM  =      4831.84262874
  Solvation  Ediel_sol  =         0.00000000
  ---------------------------------------------------
  free energy    TOTEN  =       -44.58355596 eV

  energy without entropy =      -44.58233516  energy(sigma->0) =      -44.58294556


--------------------------------------------------------------------------------------------------------




--------------------------------------- Iteration      1(   7)  ---------------------------------------


    POTLOK:  cpu time    0.0550: real time    0.0581
    SETDIJ:  cpu time    0.0053: real time    0.0053
     EDDAV:  cpu time    0.2930: real time    0.2931
       DOS:  cpu time    0.0005: real time    0.0005
    CHARGE:  cpu time    0.0315: real time    0.0315
    MIXING:  cpu time    0.0015: real time    0.0015
    --------------------------------------------
      LOOP:  cpu time    0.3868: real time    0.3900

 eigenvalue-minimisations  :   336
 total energy-change (2. order) : 0.6241531E+00  (-0.5777572E+01)
 number of electron      51.9999992 magnetization 
 augmentation part        1.0804015 magnetization 

 Broyden mixing:
  rms(total) = 0.10515E+01    rms(broyden)= 0.10515E+01
  rms(prec ) = 0.15511E+01
  weight for this iteration     100.00

 eigenvalues of (default mixing * dielectric matrix)
  average eigenvalue GAMMA=   0.9480
  1.4629  0.4330

 Free energy of the ion-electron system (eV)
  ---------------------------------------------------
  alpha Z        PSCENC =       160.27286088
  Ewald energy   TEWEN  =     -3047.95130063
  -Hartree energ DENC   =     -1691.66143043
  -exchange      EXHF   =         0.00000000
  -V(xc)+E(xc)   XCENC  =       180.80893949
  PAW double counting   =      4849.58305459    -4804.03573011
  entropy T*S    EENTRO =        -0.00028278
  eigenvalues    EBANDS =      -522.81814264
  atomic energy  EATOM  =      4831.84262874
  Solvation  Ediel_sol  =         0.00000000
  ---------------------------------------------------
  free energy    TOTEN  =       -43.95940290 eV

  energy without entropy =      -43.95912012  energy(sigma->0) =      -43.95926151


--------------------------------------------------------------------------------------------------------




--------------------------------------- Iteration      1(   8)  ---------------------------------------


    POTLOK:  cpu time    0.0551: real time    0.0584
    SETDIJ:  cpu time    0.0053: real time    0.0053
     EDDAV:  cpu time    0.2691: real time    0.2692
       DOS:  cpu time    0.0005: real time    0.0005
    CHARGE:  cpu time    0.0318: real time    0.0318
    MIXING:  cpu time    0.0014: real time    0.0014
    --------------------------------------------
      LOOP:  cpu time    0.3633: real time    0.3667

 eigenvalue-minimisations  :   304
 total energy-change (2. order) : 0.2307469E+01  (-0.8044613E+00)
 number of electron      51.9999992 magnetization 
 augmentation part        1.3402418 magnetization 

 Broyden mixing:
  rms(total) = 0.50703E+00    rms(broyden)= 0.50703E+00
  rms(prec ) = 0.56258E+00
  weight for this iteration     100.00

 eigenvalues of (default mixing * dielectric matrix)
  average eigenvalue GAMMA=   1.0320
  2.0122  0.6720  0.4116

 Free energy of the ion-electron system (eV)
  ---------------------------------------------------
  alpha Z        PSCENC =       160.27286088
  Ewald energy   TEWEN  =     -3047.95130063
  -Hartree energ DENC   =     -1678.29120710
  -exchange      EXHF   =         0.00000000
  -V(xc)+E(xc)   XCENC  =       180.52263338
  PAW double counting   =      5227.62093016    -5183.72894895
  entropy T*S    EENTRO =        -0.00968826
  eigenvalues    EBANDS =      -531.92984260
  atomic energy  EATOM  =      4831.84262874
  Solvation  Ediel_sol  =         0.00000000
  ---------------------------------------------------
  free energy    TOTEN  =       -41.65193437 eV

  energy without entropy =      -41.64224612  energy(sigma->0) =      -41.64709024


--------------------------------------------------------------------------------------------------------




--------------------------------------- Iteration      1(   9)  ---------------------------------------


    POTLOK:  cpu time    0.0549: real time    0.0586
    SETDIJ:  cpu time    0.0053: real time    0.0053
     EDDAV:  cpu time    0.3051: real time    0.3054
       DOS:  cpu time    0.0005: real time    0.0005
    CHARGE:  cpu time    0.0328: real time    0.0333
    MIXING:  cpu time    0.0015: real time    0.0015
    --------------------------------------------
      LOOP:  cpu time    0.4002: real time    0.4046

 eigenvalue-minimisations  :   352
 total energy-change (2. order) : 0.1153601E+00  (-0.1207041E+00)
 number of electron      51.9999991 magnetization 
 augmentation part        1.5710185 magnetization 

 Broyden mixing:
  rms(total) = 0.14919E+00    rms(broyden)= 0.14919E+00
  rms(prec ) = 0.16479E+00
  weight for this iteration     100.00

 eigenvalues of (default mixing * dielectric matrix)
  average eigenvalue GAMMA=   1.0559
  2.2000  1.0161  0.4523  0.5553

 Free energy of the ion-electron system (eV)
  ---------------------------------------------------
  alpha Z        PSCENC =       160.27286088
  Ewald energy   TEWEN  =     -3047.95130063
  -Hartree energ DENC   =     -1667.92546489
  -exchange      EXHF   =         0.00000000
  -V(xc)+E(xc)   XCENC  =       180.22366621
  PAW double counting   =      5494.99312941    -5452.41547070
  entropy T*S    EENTRO =        -0.00948826
  eigenvalues    EBANDS =      -540.56713507
  atomic energy  EATOM  =      4831.84262874
  Solvation  Ediel_sol  =         0.00000000
  ---------------------------------------------------
  free energy    TOTEN  =       -41.53657432 eV

  energy without entropy =      -41.52708605  energy(sigma->0) =      -41.53183018


--------------------------------------------------------------------------------------------------------




--------------------------------------- Iteration      1(  10)  ---------------------------------------


    POTLOK:  cpu time    0.0552: real time    0.0582
    SETDIJ:  cpu time    0.0053: real time    0.0053
     EDDAV:  cpu time    0.2861: real time    0.2862
       DOS:  cpu time    0.0005: real time    0.0005
    CHARGE:  cpu time    0.0318: real time    0.0318
    MIXING:  cpu time    0.0016: real time    0.0016
    --------------------------------------------
      LOOP:  cpu time    0.3806: real time    0.3837

 eigenvalue-minimisations  :   328
 total energy-change (2. order) : 0.8432583E-02  (-0.7000927E-02)
 number of electron      51.9999991 magnetization 
 augmentation part        1.5783499 magnetization 

 Broyden mixing:
  rms(total) = 0.86597E-01    rms(broyden)= 0.86596E-01
  rms(prec ) = 0.10133E+00
  weight for this iteration     100.00

 eigenvalues of (default mixing * dielectric matrix)
  average eigenvalue GAMMA=   1.0798
  1.7615  1.7615  0.4353  0.8033  0.6373

 Free energy of the ion-electron system (eV)
  ---------------------------------------------------
  alpha Z        PSCENC =       160.27286088
  Ewald energy   TEWEN  =     -3047.95130063
  -Hartree energ DENC   =     -1667.95112364
  -exchange      EXHF   =         0.00000000
  -V(xc)+E(xc)   XCENC  =       180.20184003
  PAW double counting   =      5554.56997041    -5512.13470455
  entropy T*S    EENTRO =        -0.00952823
  eigenvalues    EBANDS =      -540.36878474
  atomic energy  EATOM  =      4831.84262874
  Solvation  Ediel_sol  =         0.00000000
  ---------------------------------------------------
  free energy    TOTEN  =       -41.52814173 eV

  energy without entropy =      -41.51861351  energy(sigma->0) =      -41.52337762


--------------------------------------------------------------------------------------------------------




--------------------------------------- Iteration      1(  11)  ---------------------------------------


    POTLOK:  cpu time    0.0551: real time    0.0582
    SETDIJ:  cpu time    0.0053: real time    0.0053
     EDDAV:  cpu time    0.2851: real time    0.2852
       DOS:  cpu time    0.0005: real time    0.0005
    CHARGE:  cpu time    0.0321: real time    0.0321
    MIXING:  cpu time    0.0016: real time    0.0016
    --------------------------------------------
      LOOP:  cpu time    0.3798: real time    0.3830

 eigenvalue-minimisations  :   328
 total energy-change (2. order) : 0.4254805E-02  (-0.3506928E-02)
 number of electron      51.9999991 magnetization 
 augmentation part        1.5442468 magnetization 

 Broyden mixing:
  rms(total) = 0.35813E-01    rms(broyden)= 0.35813E-01
  rms(prec ) = 0.39439E-01
  weight for this iteration     100.00

 eigenvalues of (default mixing * dielectric matrix)
  average eigenvalue GAMMA=   1.1696
  2.1757  2.1757  0.4357  0.8575  0.6318  0.7411

 Free energy of the ion-electron system (eV)
  ---------------------------------------------------
  alpha Z        PSCENC =       160.27286088
  Ewald energy   TEWEN  =     -3047.95130063
  -Hartree energ DENC   =     -1669.04996005
  -exchange      EXHF   =         0.00000000
  -V(xc)+E(xc)   XCENC  =       180.23198283
  PAW double counting   =      5536.56715465    -5494.01525036
  entropy T*S    EENTRO =        -0.00959252
  eigenvalues    EBANDS =      -539.41241047
  atomic energy  EATOM  =      4831.84262874
  Solvation  Ediel_sol  =         0.00000000
  ---------------------------------------------------
  free energy    TOTEN  =       -41.52388693 eV

  energy without entropy =      -41.51429441  energy(sigma->0) =      -41.51909067


--------------------------------------------------------------------------------------------------------




--------------------------------------- Iteration      1(  12)  ---------------------------------------


    POTLOK:  cpu time    0.0551: real time    0.0582
    SETDIJ:  cpu time    0.0053: real time    0.0053
     EDDAV:  cpu time    0.3038: real time    0.3041
       DOS:  cpu time    0.0005: real time    0.0005
    CHARGE:  cpu time    0.0324: real time    0.0324
    MIXING:  cpu time    0.0017: real time    0.0017
    --------------------------------------------
      LOOP:  cpu time    0.3988: real time    0.4022

 eigenvalue-minimisations  :   344
 total energy-change (2. order) :-0.4541450E-05  (-0.5874321E-03)
 number of electron      51.9999991 magnetization 
 augmentation part        1.5500856 magnetization 

 Broyden mixing:
  rms(total) = 0.14692E-01    rms(broyden)= 0.14692E-01
  rms(prec ) = 0.17807E-01
  weight for this iteration     100.00

 eigenvalues of (default mixing * dielectric matrix)
  average eigenvalue GAMMA=   1.1894
  2.0177  2.0177  1.5486  0.4351  0.6196  0.9092  0.7779

 Free energy of the ion-electron system (eV)
  ---------------------------------------------------
  alpha Z        PSCENC =       160.27286088
  Ewald energy   TEWEN  =     -3047.95130063
  -Hartree energ DENC   =     -1668.96708923
  -exchange      EXHF   =         0.00000000
  -V(xc)+E(xc)   XCENC  =       180.23200951
  PAW double counting   =      5546.88669570    -5504.36139464
  entropy T*S    EENTRO =        -0.00960133
  eigenvalues    EBANDS =      -539.46870048
  atomic energy  EATOM  =      4831.84262874
  Solvation  Ediel_sol  =         0.00000000
  ---------------------------------------------------
  free energy    TOTEN  =       -41.52389147 eV

  energy without entropy =      -41.51429014  energy(sigma->0) =      -41.51909080


--------------------------------------------------------------------------------------------------------




--------------------------------------- Iteration      1(  13)  ---------------------------------------


    POTLOK:  cpu time    0.0561: real time    0.0582
    SETDIJ:  cpu time    0.0054: real time    0.0054
     EDDAV:  cpu time    0.2804: real time    0.2805
       DOS:  cpu time    0.0005: real time    0.0005
    CHARGE:  cpu time    0.0320: real time    0.0320
    MIXING:  cpu time    0.0016: real time    0.0016
    --------------------------------------------
      LOOP:  cpu time    0.3760: real time    0.3783

 eigenvalue-minimisations  :   320
 total energy-change (2. order) : 0.5662065E-04  (-0.2032001E-03)
 number of electron      51.9999991 magnetization 
 augmentation part        1.5458932 magnetization 

 Broyden mixing:
  rms(total) = 0.83518E-02    rms(broyden)= 0.83517E-02
  rms(prec ) = 0.11009E-01
  weight for this iteration     100.00

 eigenvalues of (default mixing * dielectric matrix)
  average eigenvalue GAMMA=   1.1778
  2.2092  2.2092  1.4364  1.1151  0.4350  0.7304  0.6438  0.6438

 Free energy of the ion-electron system (eV)
  ---------------------------------------------------
  alpha Z        PSCENC =       160.27286088
  Ewald energy   TEWEN  =     -3047.95130063
  -Hartree energ DENC   =     -1669.19438987
  -exchange      EXHF   =         0.00000000
  -V(xc)+E(xc)   XCENC  =       180.23911489
  PAW double counting   =      5545.33630424    -5502.79777553
  entropy T*S    EENTRO =        -0.00961725
  eigenvalues    EBANDS =      -539.26166034
  atomic energy  EATOM  =      4831.84262874
  Solvation  Ediel_sol  =         0.00000000
  ---------------------------------------------------
  free energy    TOTEN  =       -41.52383485 eV

  energy without entropy =      -41.51421760  energy(sigma->0) =      -41.51902622


--------------------------------------------------------------------------------------------------------




--------------------------------------- Iteration      1(  14)  ---------------------------------------


    POTLOK:  cpu time    0.0551: real time    0.0583
    SETDIJ:  cpu time    0.0053: real time    0.0053
     EDDAV:  cpu time    0.2744: real time    0.2744
       DOS:  cpu time    0.0005: real time    0.0005
    CHARGE:  cpu time    0.0321: real time    0.0321
    MIXING:  cpu time    0.0017: real time    0.0017
    --------------------------------------------
      LOOP:  cpu time    0.3692: real time    0.3724

 eigenvalue-minimisations  :   312
 total energy-change (2. order) : 0.2302758E-04  (-0.2776906E-04)
 number of electron      51.9999991 magnetization 
 augmentation part        1.5471211 magnetization 

 Broyden mixing:
  rms(total) = 0.38501E-02    rms(broyden)= 0.38501E-02
  rms(prec ) = 0.43974E-02
  weight for this iteration     100.00

 eigenvalues of (default mixing * dielectric matrix)
  average eigenvalue GAMMA=   1.2222
  2.3362  2.3362  1.4961  1.4961  0.4350  0.6159  0.7480  0.7480  0.7878

 Free energy of the ion-electron system (eV)
  ---------------------------------------------------
  alpha Z        PSCENC =       160.27286088
  Ewald energy   TEWEN  =     -3047.95130063
  -Hartree energ DENC   =     -1669.24402748
  -exchange      EXHF   =         0.00000000
  -V(xc)+E(xc)   XCENC  =       180.24145986
  PAW double counting   =      5545.26853063    -5502.72903261
  entropy T*S    EENTRO =        -0.00961026
  eigenvalues    EBANDS =      -539.21532095
  atomic energy  EATOM  =      4831.84262874
  Solvation  Ediel_sol  =         0.00000000
  ---------------------------------------------------
  free energy    TOTEN  =       -41.52381182 eV

  energy without entropy =      -41.51420157  energy(sigma->0) =      -41.51900669


--------------------------------------------------------------------------------------------------------




--------------------------------------- Iteration      1(  15)  ---------------------------------------


    POTLOK:  cpu time    0.0570: real time    0.0608
    SETDIJ:  cpu time    0.0053: real time    0.0053
     EDDAV:  cpu time    0.2961: real time    0.2961
       DOS:  cpu time    0.0005: real time    0.0005
    CHARGE:  cpu time    0.0321: real time    0.0322
    MIXING:  cpu time    0.0017: real time    0.0017
    --------------------------------------------
      LOOP:  cpu time    0.3927: real time    0.3966

 eigenvalue-minimisations  :   344
 total energy-change (2. order) :-0.1257062E-04  (-0.4641196E-05)
 number of electron      51.9999991 magnetization 
 augmentation part        1.5475772 magnetization 

 Broyden mixing:
  rms(total) = 0.11472E-02    rms(broyden)= 0.11472E-02
  rms(prec ) = 0.12982E-02
  weight for this iteration     100.00

 eigenvalues of (default mixing * dielectric matrix)
  average eigenvalue GAMMA=   1.2454
  2.6303  2.2126  1.6351  1.3063  1.3063  0.4350  0.6211  0.7961  0.7554  0.7554

 Free energy of the ion-electron system (eV)
  ---------------------------------------------------
  alpha Z        PSCENC =       160.27286088
  Ewald energy   TEWEN  =     -3047.95130063
  -Hartree energ DENC   =     -1669.26611959
  -exchange      EXHF   =         0.00000000
  -V(xc)+E(xc)   XCENC  =       180.24285137
  PAW double counting   =      5544.73728136    -5502.19585291
  entropy T*S    EENTRO =        -0.00960794
  eigenvalues    EBANDS =      -539.19656569
  atomic energy  EATOM  =      4831.84262874
  Solvation  Ediel_sol  =         0.00000000
  ---------------------------------------------------
  free energy    TOTEN  =       -41.52382439 eV

  energy without entropy =      -41.51421646  energy(sigma->0) =      -41.51902042


--------------------------------------------------------------------------------------------------------




--------------------------------------- Iteration      1(  16)  ---------------------------------------


    POTLOK:  cpu time    0.0553: real time    0.0584
    SETDIJ:  cpu time    0.0053: real time    0.0053
     EDDAV:  cpu time    0.2553: real time    0.2553
       DOS:  cpu time    0.0005: real time    0.0005
    CHARGE:  cpu time    0.0322: real time    0.0322
    MIXING:  cpu time    0.0018: real time    0.0018
    --------------------------------------------
      LOOP:  cpu time    0.3505: real time    0.3537

 eigenvalue-minimisations  :   280
 total energy-change (2. order) :-0.5244100E-05  (-0.9036808E-06)
 number of electron      51.9999991 magnetization 
 augmentation part        1.5480619 magnetization 

 Broyden mixing:
  rms(total) = 0.66377E-03    rms(broyden)= 0.66377E-03
  rms(prec ) = 0.72037E-03
  weight for this iteration     100.00

 eigenvalues of (default mixing * dielectric matrix)
  average eigenvalue GAMMA=   1.2639
  2.6060  2.0493  1.9103  1.9103  1.2608  0.4350  0.8772  0.6227  0.7316  0.7499
  0.7499

 Free energy of the ion-electron system (eV)
  ---------------------------------------------------
  alpha Z        PSCENC =       160.27286088
  Ewald energy   TEWEN  =     -3047.95130063
  -Hartree energ DENC   =     -1669.26146050
  -exchange      EXHF   =         0.00000000
  -V(xc)+E(xc)   XCENC  =       180.24333779
  PAW double counting   =      5544.78993602    -5502.24861131
  entropy T*S    EENTRO =        -0.00960856
  eigenvalues    EBANDS =      -539.20161206
  atomic energy  EATOM  =      4831.84262874
  Solvation  Ediel_sol  =         0.00000000
  ---------------------------------------------------
  free energy    TOTEN  =       -41.52382964 eV

  energy without entropy =      -41.51422108  energy(sigma->0) =      -41.51902536


--------------------------------------------------------------------------------------------------------




--------------------------------------- Iteration      1(  17)  ---------------------------------------


    POTLOK:  cpu time    0.0551: real time    0.0581
    SETDIJ:  cpu time    0.0053: real time    0.0053
     EDDAV:  cpu time    0.2154: real time    0.2154
       DOS:  cpu time    0.0028: real time    0.0028
    --------------------------------------------
      LOOP:  cpu time    0.2785: real time    0.2815

 eigenvalue-minimisations  :   216
 total energy-change (2. order) :-0.5477814E-06  (-0.1095592E-06)
 number of electron      51.9999991 magnetization 
 augmentation part        1.5480619 magnetization 

 Free energy of the ion-electron system (eV)
  ---------------------------------------------------
  alpha Z        PSCENC =       160.27286088
  Ewald energy   TEWEN  =     -3047.95130063
  -Hartree energ DENC   =     -1669.26655623
  -exchange      EXHF   =         0.00000000
  -V(xc)+E(xc)   XCENC  =       180.24355223
  PAW double counting   =      5544.94405278    -5502.40213390
  entropy T*S    EENTRO =        -0.00960831
  eigenvalues    EBANDS =      -539.19732575
  atomic energy  EATOM  =      4831.84262874
  Solvation  Ediel_sol  =         0.00000000
  ---------------------------------------------------
  free energy    TOTEN  =       -41.52383018 eV

  energy without entropy =      -41.51422188  energy(sigma->0) =      -41.51902603


--------------------------------------------------------------------------------------------------------




 average (electrostatic) potential at core
  the test charge radii are     1.0818  0.9698
  (the norm of the test charge is              1.0000)
       1 -75.9274       2 -75.9338       3 -85.7310       4 -85.5622       5 -85.6538
       6 -85.7100
 
 
 
 E-fermi :   6.0887     XC(G=0): -10.3318     alpha+bet :-12.2268

 Fermi energy:         6.0887461124

 k-point     1 :       0.2500    0.2500    0.0000
  band No.  band energies     occupation 
      1     -55.1442      2.00000
      2     -55.1121      2.00000
      3     -29.3826      2.00000
      4     -29.2975      2.00000
      5     -29.2774      2.00000
      6     -29.2401      2.00000
      7     -29.2078      2.00000
      8     -29.1926      2.00000
      9      -6.6597      2.00000
     10      -6.4386      2.00000
     11      -6.3999      2.00000
     12      -5.4377      2.00000
     13       0.5593      2.00000
     14       0.7675      2.00000
     15       0.9381      2.00000
     16       1.7313      2.00000
     17       2.0988      2.00000
     18       2.1955      2.00000
     19       2.6138      2.00000
     20       2.7254      2.00000
     21       2.8484      2.00000
     22       3.5135      2.00000
     23       3.7985      2.00000
     24       4.4235      2.00000
     25       5.1798      2.00000
     26       5.7916      2.00000
     27       6.0003      1.98766
     28       7.7960      0.00000
     29       8.0471      0.00000
     30       8.4763      0.00000
     31       8.6205      0.00000
     32       8.9203      0.00000

 k-point     2 :      -0.2500    0.5000    0.0000
  band No.  band energies     occupation 
      1     -55.1442      2.00000
      2     -55.1120      2.00000
      3     -29.3817      2.00000
      4     -29.3151      2.00000
      5     -29.2975      2.00000
      6     -29.2638      2.00000
      7     -29.2411      2.00000
      8     -29.0991      2.00000
      9      -6.6534      2.00000
     10      -6.4432      2.00000
     11      -6.3924      2.00000
     12      -5.4454      2.00000
     13       0.5494      2.00000
     14       0.7575      2.00000
     15       0.9185      2.00000
     16       1.7038      2.00000
     17       2.0681      2.00000
     18       2.2543      2.00000
     19       2.5832      2.00000
     20       2.7346      2.00000
     21       2.8821      2.00000
     22       3.5591      2.00000
     23       3.9298      2.00000
     24       4.2540      2.00000
     25       5.1902      2.00000
     26       5.4976      2.00000
     27       6.3600      0.00000
     28       7.7655      0.00000
     29       7.9767      0.00000
     30       8.4660      0.00000
     31       8.6568      0.00000
     32       8.7377      0.00000

 k-point     3 :      -0.2500    0.2500    0.0000
  band No.  band energies     occupation 
      1     -55.1621      2.00000
      2     -55.1286      2.00000
      3     -29.3334      2.00000
      4     -29.3035      2.00000
      5     -29.2705      2.00000
      6     -29.2199      2.00000
      7     -29.1319      2.00000
      8     -28.9829      2.00000
      9      -7.6458      2.00000
     10      -7.1754      2.00000
     11      -6.8826      2.00000
     12      -6.2195      2.00000
     13       0.5510      2.00000
     14       1.3707      2.00000
     15       1.6567      2.00000
     16       2.0291      2.00000
     17       2.2069      2.00000
     18       3.1779      2.00000
     19       3.2007      2.00000
     20       3.6291      2.00000
     21       3.6680      2.00000
     22       3.8885      2.00000
     23       4.4620      2.00000
     24       4.9623      2.00000
     25       5.4368      2.00000
     26       5.7743      2.00000
     27       6.3776      0.00000
     28       7.2818      0.00000
     29       7.9616      0.00000
     30       8.0268      0.00000
     31       8.3689      0.00000
     32       8.9770      0.00000

 k-point     4 :      -0.2500    0.0000    0.0000
  band No.  band energies     occupation 
      1     -55.1621      2.00000
      2     -55.1287      2.00000
      3     -29.3334      2.00000
      4     -29.3024      2.00000
      5     -29.2715      2.00000
      6     -29.1615      2.00000
      7     -29.1309      2.00000
      8     -29.0423      2.00000
      9      -7.6486      2.00000
     10      -7.1827      2.00000
     11      -6.8874      2.00000
     12      -6.2044      2.00000
     13       0.5383      2.00000
     14       1.3945      2.00000
     15       1.7268      2.00000
     16       2.0018      2.00000
     17       2.2078      2.00000
     18       3.0695      2.00000
     19       3.1892      2.00000
     20       3.6040      2.00000
     21       3.7915      2.00000
     22       3.8922      2.00000
     23       4.4731      2.00000
     24       4.9503      2.00000
     25       5.2064      2.00000
     26       6.0885      1.00617
     27       6.5843      0.00000
     28       6.9769      0.00000
     29       7.9305      0.00000
     30       8.0053      0.00000
     31       8.4900      0.00000
     32       8.7806      0.00000


--------------------------------------------------------------------------------------------------------


 soft charge-density along one line, spin component           1
         0         1         2         3         4         5         6         7         8         9
 total charge-density along one line
 
 pseudopotential strength for first ion, spin component:           1
 -5.069  11.444  -0.004  -0.008  -0.000   0.001  -0.001   0.000
 11.444   3.260   0.001  -0.001   0.000   0.003   0.003  -0.000
 -0.004   0.001 -18.159   0.001   0.000   8.985  -0.002  -0.000
 -0.008  -0.001   0.001 -18.168  -0.000  -0.002   8.998   0.000
 -0.000   0.000   0.000  -0.000 -18.133  -0.000   0.000   8.955
  0.001   0.003   8.985  -0.002  -0.000   5.709   0.002   0.000
 -0.001   0.003  -0.002   8.998   0.000   0.002   5.701  -0.000
  0.000  -0.000  -0.000   0.000   8.955   0.000  -0.000   5.725
  0.000  -0.000  -0.000  -0.000  -0.001   0.000   0.000  -0.001
  0.001  -0.001   0.002   0.001  -0.000  -0.003  -0.001   0.000
 -0.016   0.010   0.004  -0.005   0.000  -0.001  -0.000  -0.000
 -0.000   0.000  -0.000  -0.000  -0.002   0.000   0.000  -0.001
  0.016  -0.009   0.006  -0.002  -0.000  -0.002   0.001   0.000
  0.000  -0.000  -0.000  -0.000  -0.001   0.000   0.000  -0.001
  0.001  -0.001   0.002   0.001  -0.000  -0.003  -0.001   0.000
 -0.016   0.010   0.004  -0.005   0.000  -0.001  -0.000  -0.000
 -0.000   0.000  -0.000  -0.000  -0.002   0.000   0.000  -0.001
  0.017  -0.010   0.006  -0.002  -0.000  -0.002   0.001   0.000
 total augmentation occupancy for first ion, spin component:           1
  1.995  -0.041   0.001   0.000   0.000   0.001   0.001   0.000   0.000  -0.001   0.027   0.000  -0.027   0.000   0.002  -0.025
 -0.041   1.163   0.009   0.013   0.000  -0.025  -0.049   0.000   0.000   0.210  -0.397   0.000   0.100   0.000  -0.258   0.413
  0.001   0.009   1.997  -0.000   0.000  -0.041   0.004   0.000   0.000   0.012   0.006   0.000  -0.000   0.000   0.000  -0.002
  0.000   0.013  -0.000   1.998   0.000   0.004  -0.048   0.000   0.000   0.013   0.004   0.000  -0.001   0.000   0.001  -0.007
  0.000   0.000   0.000   0.000   1.997   0.000   0.000  -0.041  -0.001   0.000   0.000   0.008   0.000   0.005   0.000   0.000
  0.001  -0.025  -0.041   0.004   0.000   0.076  -0.014   0.000   0.000   0.164   0.040   0.000   0.114   0.000  -0.196  -0.056
  0.001  -0.049   0.004  -0.048   0.000  -0.014   0.104   0.000   0.000   0.071  -0.096   0.000   0.031   0.000  -0.112   0.098
  0.000   0.000   0.000   0.000  -0.041   0.000   0.000   0.073   0.127   0.000   0.000   0.238   0.000  -0.130   0.000   0.000
  0.000   0.000   0.000   0.000  -0.001   0.000   0.000   0.127   1.610   0.000   0.000   0.678   0.000  -1.570   0.000   0.000
 -0.001   0.210   0.012   0.013   0.000   0.164   0.071   0.000   0.000   2.563  -0.547   0.000   0.707   0.000  -3.040   0.691
  0.027  -0.397   0.006   0.004   0.000   0.040  -0.096   0.000   0.000  -0.547   1.910   0.000  -0.163   0.000   0.691  -2.187
  0.000   0.000   0.000   0.000   0.008   0.000   0.000   0.238   0.678   0.000   0.000   2.347   0.000  -0.894   0.000   0.000
 -0.027   0.100  -0.000  -0.001   0.000   0.114   0.031   0.000   0.000   0.707  -0.163   0.000   1.682   0.000  -1.090   0.120
  0.000   0.000   0.000   0.000   0.005   0.000   0.000  -0.130  -1.570   0.000   0.000  -0.894   0.000   2.371   0.000   0.000
  0.002  -0.258   0.000   0.001   0.000  -0.196  -0.112   0.000   0.000  -3.040   0.691   0.000  -1.090   0.000   4.161  -0.839
 -0.025   0.413  -0.002  -0.007   0.000  -0.056   0.098   0.000   0.000   0.691  -2.187   0.000   0.120   0.000  -0.839   3.238
  0.000   0.000   0.000   0.000   0.002   0.000   0.000  -0.251  -0.895   0.000   0.000  -2.617   0.000   1.108   0.000   0.000
  0.024  -0.068   0.000  -0.001   0.000  -0.110  -0.018   0.000   0.000  -1.091   0.121   0.000  -1.571   0.000   1.411  -0.108


------------------------ aborting loop because EDIFF is reached ----------------------------------------


    CHARGE:  cpu time    0.0322: real time    0.0322
    FORLOC:  cpu time    0.0047: real time    0.0047
    FORNL :  cpu time    0.0541: real time    0.0541
    STRESS:  cpu time    0.1199: real time    0.1200
    FORCOR:  cpu time    0.0589: real time    0.0589
    FORHAR:  cpu time    0.0146: real time    0.0146
    MIXING:  cpu time    0.0018: real time    0.0018
    OFIELD:  cpu time    0.0000: real time    0.0000

  FORCE on cell =-STRESS in cart. coord.  units (eV):
  Direction    XX          YY          ZZ          XY          YZ          ZX
  --------------------------------------------------------------------------------------
  Alpha Z   160.27286   160.27286   160.27286
  Ewald    -332.63384  -308.27377 -2407.04646    -0.00000   -32.76950     0.00000
  Hartree  1147.41585  1155.29915  -633.41721     0.00000   -12.65967    -0.00000
  E(xc)    -218.09151  -218.06387  -218.08345     0.00000    -0.03784    -0.00000
  Local   -1823.86251 -1850.92152  2033.42542     0.00000    46.81624    -0.00000
  n-local   236.00926   235.72889   245.55362    -3.37055    -2.73456    -0.55262
  augment    -1.12855    -1.69611    -4.25486     0.00000     0.54914    -0.00000
  Kinetic   830.02816   824.74863   816.99156    -7.29565     0.89690     2.21109
  Fock        0.00000     0.00000     0.00000     0.00000     0.00000     0.00000
  -------------------------------------------------------------------------------------
  Total      -1.99028    -2.90573    -6.55852     0.00000     0.06071     0.00000
  in kB     -27.00871   -39.43160   -89.00094     0.00000     0.82380     0.00000
  external pressure =      -51.81 kB  Pullay stress =        0.00 kB


 VOLUME and BASIS-vectors are now :
 -----------------------------------------------------------------------------
  energy-cutoff  :      500.00
  volume of cell :      118.07
      direct lattice vectors                 reciprocal lattice vectors
     1.596118927 -2.764559076  0.000000000     0.313259865 -0.180860668  0.000000000
     1.596118927  2.764559076  0.000000000     0.313259865  0.180860668  0.000000000
     0.000000000  0.000000000 13.378293991     0.000000000  0.000000000  0.074747946

  length of vectors
     3.192237854  3.192237854 13.378293991     0.361721335  0.361721335  0.074747946


 FORCES acting on ions
    electron-ion (+dipol)            ewald-force                    non-local-force                 convergence-correction
 -----------------------------------------------------------------------------------------------
   0.288E-07 -.188E+02 -.196E+02   -.320E-13 0.169E+02 0.180E+02   0.000E+00 0.176E+01 0.235E+01   -.162E-13 0.382E-04 -.966E-02
   0.563E-08 0.365E-01 -.927E+02   -.660E-14 -.120E-01 0.930E+02   0.000E+00 0.365E-01 -.213E+00   0.344E-15 0.906E-05 0.732E-02
   0.696E-07 -.210E+01 0.373E+03   -.453E-14 0.206E+01 -.378E+03   0.000E+00 0.143E+00 0.481E+01   -.341E-15 0.761E-04 0.188E-02
   -.466E-07 0.183E+02 -.184E+03   0.288E-14 -.189E+02 0.185E+03   -.278E-16 0.412E+00 -.330E+01   -.355E-14 -.612E-04 -.304E-03
   -.673E-07 0.276E-01 -.454E+03   -.464E-14 0.173E-02 0.459E+03   0.278E-16 -.214E-01 -.507E+01   -.509E-14 -.572E-05 0.628E-02
   0.875E-07 -.445E+00 0.374E+03   0.151E-13 -.178E-01 -.377E+03   0.000E+00 0.694E+00 0.505E+01   0.459E-14 -.574E-05 -.988E-02
 -----------------------------------------------------------------------------------------------
   0.776E-07 -.302E+01 -.364E+01   -.299E-13 0.908E-14 -.114E-12   0.000E+00 0.302E+01 0.364E+01   -.202E-13 0.507E-04 -.437E-02
 
 
 POSITION                                       TOTAL-FORCE (eV/Angst)
 -----------------------------------------------------------------------------------
      1.59612     -0.92152      3.34457         0.000000     -0.188257      0.760225
      1.59612      0.92152     10.03372         0.000000      0.061013      0.042177
      1.59612     -0.92152      8.46956         0.000000      0.105749      0.594672
      1.59612     -1.70335      5.63196         0.000000     -0.217035     -2.424273
      1.59612     -0.92152     11.59788         0.000000      0.008006     -0.297552
      1.59612      0.92152      1.78041         0.000000      0.230524      1.324750
 -----------------------------------------------------------------------------------
    total drift:                                0.000000      0.000009     -0.000502


--------------------------------------------------------------------------------------------------------



  FREE ENERGIE OF THE ION-ELECTRON SYSTEM (eV)
  ---------------------------------------------------
  free  energy   TOTEN  =       -41.52383018 eV

  energy  without entropy=      -41.51422188  energy(sigma->0) =      -41.51902603
 


--------------------------------------------------------------------------------------------------------


    POTLOK:  cpu time    0.0604: real time    0.0604


--------------------------------------------------------------------------------------------------------


 stress matrix after NEB project (eV)
     -1.99028      0.00000      0.00000
      0.00000     -2.90573      0.06071
      0.00000      0.06071     -6.55852
  FORCES: max atom, RMS     2.433969    1.211377
  FORCE total and by dimension    2.967256    2.424273
  Stress total and by dimension    7.444869    6.558520
 writing wavefunctions
     LOOP+:  cpu time    7.0903: real time    7.1593
    4ORBIT:  cpu time    0.0000: real time    0.0000

 total amount of memory used by VASP MPI-rank0    37866. kBytes
=======================================================================

   base      :      30000. kBytes
   nonl-proj :        950. kBytes
   fftplans  :       2329. kBytes
   grid      :       3750. kBytes
   one-center:         31. kBytes
   wavefun   :        806. kBytes
 
  
  
 General timing and accounting informations for this job:
 ========================================================
  
                  Total CPU time used (sec):        8.677
                            User time (sec):        7.850
                          System time (sec):        0.828
                         Elapsed time (sec):        9.171
  
                   Maximum memory used (kb):      127712.
                   Average memory used (kb):          N/A
  
                          Minor page faults:        23011
                          Major page faults:            0
                 Voluntary context switches:          944
