 vasp.6.2.0 18Jan21 (build Jul 31 2023 14:19:35) complex                        
  
 executed on             LinuxIFC date 2025.09.17  14:43:40
 running on    8 total cores
 distrk:  each k-point on    8 cores,    1 groups
 distr:  one band on NCORE=   4 cores,    2 groups


--------------------------------------------------------------------------------------------------------


 INCAR:
   SYSTEM = MoS2_SinglePoint_vdW_Coulomb
   PREC = Accurate
   ENCUT = 500
   GGA = PE
   ALGO = Normal
   NELM = 100
   NELMIN = 5
   EDIFF = 1E-6
   ISMEAR = 0
   SIGMA = 0.05
   IBRION = -1
   NSW = 0
   LREAL = .FALSE.
   LCHARG = .TRUE.
   LWAVE = .TRUE.
   NWRITE = 1
   NCORE = 4

 POTCAR:    PAW_PBE Mo_sv 02Feb2006               
 POTCAR:    PAW_PBE S 06Sep2000                   
 POTCAR:    PAW_PBE Mo_sv 02Feb2006               
  local pseudopotential read in
  partial core-charges read in
  partial kinetic energy density read in
  atomic valenz-charges read in
  non local Contribution for L=           0  read in
    real space projection operators read in
  non local Contribution for L=           0  read in
    real space projection operators read in
  non local Contribution for L=           1  read in
    real space projection operators read in
  non local Contribution for L=           1  read in
    real space projection operators read in
  non local Contribution for L=           2  read in
    real space projection operators read in
  non local Contribution for L=           2  read in
    real space projection operators read in
    PAW grid and wavefunctions read in
 
   number of l-projection  operators is LMAX  =           6
   number of lm-projection operators is LMMAX =          18
 
 POTCAR:    PAW_PBE S 06Sep2000                   
  local pseudopotential read in
  partial core-charges read in
  partial kinetic energy density read in
  atomic valenz-charges read in
  non local Contribution for L=           0  read in
    real space projection operators read in
  non local Contribution for L=           0  read in
    real space projection operators read in
  non local Contribution for L=           1  read in
    real space projection operators read in
  non local Contribution for L=           1  read in
    real space projection operators read in
    PAW grid and wavefunctions read in
 
   number of l-projection  operators is LMAX  =           4
   number of lm-projection operators is LMMAX =           8
 
  PAW_PBE Mo_sv 02Feb2006               :
 energy of atom  1       EATOM=-1862.2866
 kinetic energy error for atom=    0.0074 (will be added to EATOM!!)
  PAW_PBE S 06Sep2000                   :
 energy of atom  2       EATOM= -276.8230
 kinetic energy error for atom=    0.0020 (will be added to EATOM!!)
 
 
 POSCAR: Mo S
  positions in direct lattice
  No initial velocities read in
 exchange correlation table for  LEXCH =        8
   RHO(1)=    0.500       N(1)  =     2000
   RHO(2)=  100.500       N(2)  =     4000

 VTST: version 4.0, (05/15/20)

 CHAIN: initializing optimizer
 
 OPT: Using VASP Dynamics algorithm
 CHAIN: Read ICHAIN            0
 
 POSCAR: Mo S
  positions in direct lattice
  No initial velocities read in
 


--------------------------------------------------------------------------------------------------------


 ion  position               nearest neighbor table
   1  0.667  0.333  0.250-   4 2.26   6 2.42   6 2.42   6 2.42   4 2.42   4 3.06
   2  0.333  0.667  0.750-   3 2.42   5 2.42   3 2.42   5 2.42   3 2.42   5 2.42
   3  0.667  0.333  0.633-   2 2.42   2 2.42   2 2.42
   4  0.745  0.909  0.377-   1 2.26   1 2.42   1 3.06
   5  0.667  0.333  0.867-   2 2.42   2 2.42   2 2.42
   6  0.333  0.667  0.133-   1 2.42   1 2.42   1 2.42
 
  LATTYP: Found a hexagonal cell.
 ALAT       =     3.1922378540
 C/A-ratio  =     4.1908825730
  
  Lattice vectors:
  
 A1 = (   1.5961189270,  -2.7645590765,   0.0000000000)
 A2 = (   1.5961189270,   2.7645590765,   0.0000000000)
 A3 = (   0.0000000000,   0.0000000000,  13.3782939911)


Analysis of symmetry for initial positions (statically):
=====================================================================
 Subroutine PRICEL returns:
 Original cell was already a primitive cell.
 

 Routine SETGRP: Setting up the symmetry group for a 
 hexagonal supercell.


 Subroutine GETGRP returns: Found  1 space group operations
 (whereof  1 operations were pure point group operations)
 out of a pool of 24 trial point group operations.


The static configuration has the point symmetry C_1 .


Analysis of symmetry for dynamics (positions and initial velocities):
=====================================================================
 Subroutine PRICEL returns:
 Original cell was already a primitive cell.
 

 Routine SETGRP: Setting up the symmetry group for a 
 hexagonal supercell.


 Subroutine GETGRP returns: Found  1 space group operations
 (whereof  1 operations were pure point group operations)
 out of a pool of 24 trial point group operations.


The dynamic configuration has the point symmetry C_1 .


 Subroutine INISYM returns: Found  1 space group operations
 (whereof  1 operations are pure point group operations),
 and found     1 'primitive' translations


----------------------------------------------------------------------------------------

                                     Primitive cell                                     

  volume of cell :     118.0652

  direct lattice vectors                    reciprocal lattice vectors
     1.596118927 -2.764559076  0.000000000     0.313259865 -0.180860668  0.000000000
     1.596118927  2.764559076  0.000000000     0.313259865  0.180860668  0.000000000
     0.000000000  0.000000000 13.378293991     0.000000000  0.000000000  0.074747946

  length of vectors
     3.192237854  3.192237854 13.378293991     0.361721335  0.361721335  0.074747946

  position of ions in fractional coordinates (direct lattice)
     0.666666667  0.333333333  0.250000000
     0.333333333  0.666666667  0.750000000
     0.666666667  0.333333333  0.633082000
     0.744806860  0.908558478  0.376573350
     0.666666667  0.333333333  0.866918000
     0.333333333  0.666666667  0.133082000

  ion indices of the primitive-cell ions
   primitive index   ion index
                 1           1
                 2           2
                 3           3
                 4           4
                 5           5
                 6           6

----------------------------------------------------------------------------------------

 
 
 KPOINTS: K-Spacing Value to Generate K-Mesh: 0.15

Automatic generation of k-mesh.
 Grid dimensions read from file:
 generate k-points for:    2    2    1

 Generating k-lattice:

  Cartesian coordinates                     Fractional coordinates (reciprocal lattice)
     0.156629933 -0.090430334  0.000000000     0.500000000  0.000000000  0.000000000
     0.156629933  0.090430334  0.000000000     0.000000000  0.500000000  0.000000000
     0.000000000  0.000000000  0.074747946     0.000000000  0.000000000  1.000000000

  Length of vectors
     0.180860668  0.180860668  0.074747946

  Shift w.r.t. Gamma in fractional coordinates (k-lattice)
     0.500000000  0.500000000  0.000000000

 
 Subroutine IBZKPT returns following result:
 ===========================================
 
 Found      6 irreducible k-points:
 
 Following reciprocal coordinates:
            Coordinates               Weight
  0.250000  0.250000  0.000000      2.000000
 -0.250000  0.500000  0.000000      2.000000
  0.500000  0.250000  0.000000      2.000000
 -0.250000  0.250000  0.000000      2.000000
 -0.250000  0.000000  0.000000      2.000000
  0.000000 -0.250000  0.000000      2.000000
 
 Following cartesian coordinates:
            Coordinates               Weight
  0.156630  0.000000  0.000000      2.000000
  0.078315  0.135646  0.000000      2.000000
  0.234945 -0.045215  0.000000      2.000000
  0.000000  0.090430  0.000000      2.000000
 -0.078315  0.045215  0.000000      2.000000
 -0.078315 -0.045215  0.000000      2.000000
 


--------------------------------------------------------------------------------------------------------




 Dimension of arrays:
   k-points           NKPTS =      6   k-points in BZ     NKDIM =      6   number of bands    NBANDS=     32
   number of dos      NEDOS =    301   number of ions     NIONS =      6
   non local maximal  LDIM  =      6   non local SUM 2l+1 LMDIM =     18
   total plane-waves  NPLWV =  56448
   max r-space proj   IRMAX =      1   max aug-charges    IRDMAX=  21106
   dimension x,y,z NGX =    24 NGY =   24 NGZ =   98
   dimension x,y,z NGXF=    48 NGYF=   48 NGZF=  196
   support grid    NGXF=    48 NGYF=   48 NGZF=  196
   ions per type =               2   4
   NGX,Y,Z   is equivalent  to a cutoff of  12.50, 12.50, 12.18 a.u.
   NGXF,Y,Z  is equivalent  to a cutoff of  25.00, 25.00, 24.36 a.u.

 SYSTEM =  MoS2_SinglePoint_vdW_Coulomb           
 POSCAR =  Mo S                                    

 Startparameter for this run:
   NWRITE =      1    write-flag & timer
   PREC   = accura    normal or accurate (medium, high low for compatibility)
   ISTART =      0    job   : 0-new  1-cont  2-samecut
   ICHARG =      2    charge: 1-file 2-atom 10-const
   ISPIN  =      1    spin polarized calculation?
   LNONCOLLINEAR =      F non collinear calculations
   LSORBIT =      F    spin-orbit coupling
   INIWAV =      1    electr: 0-lowe 1-rand  2-diag
   LASPH  =      F    aspherical Exc in radial PAW
   METAGGA=      F    non-selfconsistent MetaGGA calc.

 Electronic Relaxation 1
   ENCUT  =  500.0 eV  36.75 Ry    6.06 a.u.   5.82  5.82 24.39*2*pi/ulx,y,z
   ENINI  =  500.0     initial cutoff
   ENAUG  =  446.0 eV  augmentation charge cutoff
   NELM   =    100;   NELMIN=  5; NELMDL= -5     # of ELM steps 
   EDIFF  = 0.1E-05   stopping-criterion for ELM
   LREAL  =      F    real-space projection
   NLSPLINE    = F    spline interpolate recip. space projectors
   LCOMPAT=      F    compatible to vasp.4.4
   GGA_COMPAT  = T    GGA compatible to vasp.4.4-vasp.4.6
   LMAXPAW     = -100 max onsite density
   LMAXMIX     =    2 max onsite mixed and CHGCAR
   VOSKOWN=      0    Vosko Wilk Nusair interpolation
   ROPT   =    0.00000   0.00000
 Ionic relaxation
   EDIFFG = 0.1E-04   stopping-criterion for IOM
   NSW    =      0    number of steps for IOM
   NBLOCK =      1;   KBLOCK =      1    inner block; outer block 
   IBRION =     -1    ionic relax: 0-MD 1-quasi-New 2-CG
   NFREE  =      0    steps in history (QN), initial steepest desc. (CG)
   ISIF   =      2    stress and relaxation
   IWAVPR =     10    prediction:  0-non 1-charg 2-wave 3-comb
   ISYM   =      2    0-nonsym 1-usesym 2-fastsym
   LCORR  =      T    Harris-Foulkes like correction to forces

   POTIM  = 0.5000    time-step for ionic-motion
   TEIN   =    0.0    initial temperature
   TEBEG  =    0.0;   TEEND  =   0.0 temperature during run
   SMASS  =  -3.00    Nose mass-parameter (am)
   estimated Nose-frequenzy (Omega)   =  0.10E-29 period in steps = 0.13E+47 mass=  -0.233E-27a.u.
   SCALEE = 1.0000    scale energy and forces
   NPACO  =    256;   APACO  = 16.0  distance and # of slots for P.C.
   PSTRESS=    0.0 pullay stress

  Mass of Ions in am
   POMASS =  95.94 32.07
  Ionic Valenz
   ZVAL   =  14.00  6.00
  Atomic Wigner-Seitz radii
   RWIGS  =  -1.00 -1.00
  virtual crystal weights 
   VCA    =   1.00  1.00
   NELECT =      52.0000    total number of electrons
   NUPDOWN=      -1.0000    fix difference up-down

 DOS related values:
   EMIN   =  10.00;   EMAX   =-10.00  energy-range for DOS
   EFERMI =   0.00
   ISMEAR =     0;   SIGMA  =   0.05  broadening in eV -4-tet -1-fermi 0-gaus

 Electronic relaxation 2 (details)
   IALGO  =     38    algorithm
   LDIAG  =      T    sub-space diagonalisation (order eigenvalues)
   LSUBROT=      F    optimize rotation matrix (better conditioning)
   TURBO    =      0    0=normal 1=particle mesh
   IRESTART =      0    0=no restart 2=restart with 2 vectors
   NREBOOT  =      0    no. of reboots
   NMIN     =      0    reboot dimension
   EREF     =   0.00    reference energy to select bands
   IMIX   =      4    mixing-type and parameters
     AMIX     =   0.40;   BMIX     =  1.00
     AMIX_MAG =   1.60;   BMIX_MAG =  1.00
     AMIN     =   0.10
     WC   =   100.;   INIMIX=   1;  MIXPRE=   1;  MAXMIX= -45

 Intra band minimization:
   WEIMIN = 0.0000     energy-eigenvalue tresh-hold
   EBREAK =  0.78E-08  absolut break condition
   DEPER  =   0.30     relativ break condition  

   TIME   =   0.40     timestep for ELM

  volume/ion in A,a.u.               =      19.68       132.79
  Fermi-wavevector in a.u.,A,eV,Ry     =   1.245571  2.353789 21.108736  1.551448
  Thomas-Fermi vector in A             =   2.379788
 
 Write flags
   LWAVE        =      T    write WAVECAR
   LDOWNSAMPLE  =      F    k-point downsampling of WAVECAR
   LCHARG       =      T    write CHGCAR
   LVTOT        =      F    write LOCPOT, total local potential
   LVHAR        =      F    write LOCPOT, Hartree potential only
   LELF         =      F    write electronic localiz. function (ELF)
   LORBIT       =      0    0 simple, 1 ext, 2 COOP (PROOUT), +10 PAW based schemes


 Dipole corrections
   LMONO  =      F    monopole corrections only (constant potential shift)
   LDIPOL =      F    correct potential (dipole corrections)
   IDIPOL =      0    1-x, 2-y, 3-z, 4-all directions 
   EPSILON=  1.0000000 bulk dielectric constant

 Exchange correlation treatment:
   GGA     =    PE    GGA type
   LEXCH   =     8    internal setting for exchange type
   VOSKOWN=      0    Vosko Wilk Nusair interpolation
   LHFCALC =     F    Hartree Fock is set to
   LHFONE  =     F    Hartree Fock one center treatment
   AEXX    =    0.0000 exact exchange contribution

 Linear response parameters
   LEPSILON=     F    determine dielectric tensor
   LRPA    =     F    only Hartree local field effects (RPA)
   LNABLA  =     F    use nabla operator in PAW spheres
   LVEL    =     F    velocity operator in full k-point grid
   LINTERFAST=   F  fast interpolation
   KINTER  =     0    interpolate to denser k-point grid
   CSHIFT  =0.1000    complex shift for real part using Kramers Kronig
   OMEGAMAX=  -1.0    maximum frequency
   DEG_THRESHOLD= 0.2000000E-02 threshold for treating states as degnerate
   RTIME   =   -0.100 relaxation time in fs
  (WPLASMAI=    0.000 imaginary part of plasma frequency in eV, 0.658/RTIME)
   DFIELD  = 0.0000000 0.0000000 0.0000000 field for delta impulse in time
 
 Orbital magnetization related:
   ORBITALMAG=     F  switch on orbital magnetization
   LCHIMAG   =     F  perturbation theory with respect to B field
   DQ        =  0.001000  dq finite difference perturbation B field
   LLRAUG    =     F  two centre corrections for induced B field



--------------------------------------------------------------------------------------------------------


 Static calculation
 charge density and potential will be updated during run
 non-spin polarized calculation
 Variant of blocked Davidson
 Davidson routine will perform the subspace rotation
 perform sub-space diagonalisation
    after iterative eigenvector-optimisation
 modified Broyden-mixing scheme, WC =      100.0
 initial mixing is a Kerker type mixing with AMIX =  0.4000 and BMIX =      1.0000
 Hartree-type preconditioning will be used
 using additional bands            6
 reciprocal scheme for non local part
 use partial core corrections
 calculate Harris-corrections to forces 
   (improved forces if not selfconsistent)
 use gradient corrections 
 use of overlap-Matrix (Vanderbilt PP)
 Gauss-broadening in eV      SIGMA  =   0.05


--------------------------------------------------------------------------------------------------------


  energy-cutoff  :      500.00
  volume of cell :      118.07
      direct lattice vectors                 reciprocal lattice vectors
     1.596118927 -2.764559076  0.000000000     0.313259865 -0.180860668  0.000000000
     1.596118927  2.764559076  0.000000000     0.313259865  0.180860668  0.000000000
     0.000000000  0.000000000 13.378293991     0.000000000  0.000000000  0.074747946

  length of vectors
     3.192237854  3.192237854 13.378293991     0.361721335  0.361721335  0.074747946


 
 k-points in units of 2pi/SCALE and weight: K-Spacing Value to Generate K-Mesh: 0.15
   0.15662993  0.00000000  0.00000000       0.167
   0.07831497  0.13564550  0.00000000       0.167
   0.23494490 -0.04521517  0.00000000       0.167
   0.00000000  0.09043033  0.00000000       0.167
  -0.07831497  0.04521517  0.00000000       0.167
  -0.07831497 -0.04521517  0.00000000       0.167
 
 k-points in reciprocal lattice and weights: K-Spacing Value to Generate K-Mesh: 0.15
   0.25000000  0.25000000  0.00000000       0.167
  -0.25000000  0.50000000  0.00000000       0.167
   0.50000000  0.25000000  0.00000000       0.167
  -0.25000000  0.25000000  0.00000000       0.167
  -0.25000000  0.00000000  0.00000000       0.167
   0.00000000 -0.25000000  0.00000000       0.167
 
 position of ions in fractional coordinates (direct lattice) 
   0.66666667  0.33333333  0.25000000
   0.33333333  0.66666667  0.75000000
   0.66666667  0.33333333  0.63308200
   0.74480686  0.90855848  0.37657335
   0.66666667  0.33333333  0.86691800
   0.33333333  0.66666667  0.13308200
 
 position of ions in cartesian coordinates  (Angst):
   1.59611893 -0.92151969  3.34457350
   1.59611893  0.92151969 10.03372049
   1.59611893 -0.92151969  8.46955712
   2.63896771  0.45270102  5.03790899
   1.59611893 -0.92151969 11.59788387
   1.59611893  0.92151969  1.78041012
 


--------------------------------------------------------------------------------------------------------


 k-point   1 :   0.2500 0.2500 0.0000  plane waves:    3020
 k-point   2 :  -0.2500 0.5000 0.0000  plane waves:    3020
 k-point   3 :   0.5000 0.2500 0.0000  plane waves:    3020
 k-point   4 :  -0.2500 0.2500 0.0000  plane waves:    2992
 k-point   5 :  -0.2500 0.0000 0.0000  plane waves:    2992
 k-point   6 :   0.0000-0.2500 0.0000  plane waves:    2992

 maximum and minimum number of plane-waves per node :       767      745

 maximum number of plane-waves:      3020
 maximum index in each direction: 
   IXMAX=    6   IYMAX=    6   IZMAX=   24
   IXMIN=   -6   IYMIN=   -6   IZMIN=  -24


 parallel 3D FFT for wavefunctions:
    minimum data exchange during FFTs selected (reduces bandwidth)
 parallel 3D FFT for charge:
    minimum data exchange during FFTs selected (reduces bandwidth)


 total amount of memory used by VASP MPI-rank0    38677. kBytes
=======================================================================

   base      :      30000. kBytes
   nonl-proj :       1371. kBytes
   fftplans  :       2330. kBytes
   grid      :       3750. kBytes
   one-center:         31. kBytes
   wavefun   :       1195. kBytes
 
     INWAV:  cpu time    0.0000: real time    0.0001
 Broyden mixing: mesh for mixing (old mesh)
   NGX = 11   NGY = 11   NGZ = 49
  (NGX  = 48   NGY  = 48   NGZ  =196)
  gives a total of   5929 points

 initial charge density was supplied:
 charge density of overlapping atoms calculated
 number of electron      52.0000000 magnetization 
 keeping initial charge density in first step


--------------------------------------------------------------------------------------------------------


 Maximum index for augmentation-charges         2591 (set IRDMAX)


--------------------------------------------------------------------------------------------------------


 First call to EWALD:  gamma=   0.361
 Maximum number of real-space cells 4x 4x 1
 Maximum number of reciprocal cells 2x 2x 7

    FEWALD:  cpu time    0.0019: real time    0.0019


--------------------------------------- Iteration      1(   1)  ---------------------------------------


    POTLOK:  cpu time    0.0561: real time    0.0571
    SETDIJ:  cpu time    0.0055: real time    0.0055
     EDDAV:  cpu time    0.3903: real time    0.3905
       DOS:  cpu time    0.0007: real time    0.0007
    --------------------------------------------
      LOOP:  cpu time    0.4526: real time    0.4538

 eigenvalue-minimisations  :   432
 total energy-change (2. order) : 0.4229470E+03  (-0.2922678E+04)
 number of electron      52.0000000 magnetization 
 augmentation part       52.0000000 magnetization 

 Free energy of the ion-electron system (eV)
  ---------------------------------------------------
  alpha Z        PSCENC =       160.27286088
  Ewald energy   TEWEN  =     -2889.79643714
  -Hartree energ DENC   =     -1856.51750792
  -exchange      EXHF   =         0.00000000
  -V(xc)+E(xc)   XCENC  =       182.53454208
  PAW double counting   =      3865.57804258    -3815.84821480
  entropy T*S    EENTRO =        -0.00187692
  eigenvalues    EBANDS =       -55.11699398
  atomic energy  EATOM  =      4831.84262874
  Solvation  Ediel_sol  =         0.00000000
  ---------------------------------------------------
  free energy    TOTEN  =       422.94704352 eV

  energy without entropy =      422.94892044  energy(sigma->0) =      422.94798198


--------------------------------------------------------------------------------------------------------




--------------------------------------- Iteration      1(   2)  ---------------------------------------


     EDDAV:  cpu time    0.4052: real time    0.4087
       DOS:  cpu time    0.0007: real time    0.0007
    --------------------------------------------
      LOOP:  cpu time    0.4059: real time    0.4094

 eigenvalue-minimisations  :   464
 total energy-change (2. order) :-0.4453973E+03  (-0.4350281E+03)
 number of electron      52.0000000 magnetization 
 augmentation part       52.0000000 magnetization 

 Free energy of the ion-electron system (eV)
  ---------------------------------------------------
  alpha Z        PSCENC =       160.27286088
  Ewald energy   TEWEN  =     -2889.79643714
  -Hartree energ DENC   =     -1856.51750792
  -exchange      EXHF   =         0.00000000
  -V(xc)+E(xc)   XCENC  =       182.53454208
  PAW double counting   =      3865.57804258    -3815.84821480
  entropy T*S    EENTRO =        -0.01070024
  eigenvalues    EBANDS =      -500.50543747
  atomic energy  EATOM  =      4831.84262874
  Solvation  Ediel_sol  =         0.00000000
  ---------------------------------------------------
  free energy    TOTEN  =       -22.45022329 eV

  energy without entropy =      -22.43952305  energy(sigma->0) =      -22.44487317


--------------------------------------------------------------------------------------------------------




--------------------------------------- Iteration      1(   3)  ---------------------------------------


     EDDAV:  cpu time    0.4349: real time    0.4389
       DOS:  cpu time    0.0005: real time    0.0005
    --------------------------------------------
      LOOP:  cpu time    0.4354: real time    0.4394

 eigenvalue-minimisations  :   496
 total energy-change (2. order) :-0.2256073E+02  (-0.2212483E+02)
 number of electron      52.0000000 magnetization 
 augmentation part       52.0000000 magnetization 

 Free energy of the ion-electron system (eV)
  ---------------------------------------------------
  alpha Z        PSCENC =       160.27286088
  Ewald energy   TEWEN  =     -2889.79643714
  -Hartree energ DENC   =     -1856.51750792
  -exchange      EXHF   =         0.00000000
  -V(xc)+E(xc)   XCENC  =       182.53454208
  PAW double counting   =      3865.57804258    -3815.84821480
  entropy T*S    EENTRO =        -0.00000011
  eigenvalues    EBANDS =      -523.07686562
  atomic energy  EATOM  =      4831.84262874
  Solvation  Ediel_sol  =         0.00000000
  ---------------------------------------------------
  free energy    TOTEN  =       -45.01095132 eV

  energy without entropy =      -45.01095120  energy(sigma->0) =      -45.01095126


--------------------------------------------------------------------------------------------------------




--------------------------------------- Iteration      1(   4)  ---------------------------------------


     EDDAV:  cpu time    0.4069: real time    0.4116
       DOS:  cpu time    0.0005: real time    0.0005
    --------------------------------------------
      LOOP:  cpu time    0.4075: real time    0.4122

 eigenvalue-minimisations  :   464
 total energy-change (2. order) :-0.5233643E+00  (-0.5216645E+00)
 number of electron      52.0000000 magnetization 
 augmentation part       52.0000000 magnetization 

 Free energy of the ion-electron system (eV)
  ---------------------------------------------------
  alpha Z        PSCENC =       160.27286088
  Ewald energy   TEWEN  =     -2889.79643714
  -Hartree energ DENC   =     -1856.51750792
  -exchange      EXHF   =         0.00000000
  -V(xc)+E(xc)   XCENC  =       182.53454208
  PAW double counting   =      3865.57804258    -3815.84821480
  entropy T*S    EENTRO =        -0.00000512
  eigenvalues    EBANDS =      -523.60022491
  atomic energy  EATOM  =      4831.84262874
  Solvation  Ediel_sol  =         0.00000000
  ---------------------------------------------------
  free energy    TOTEN  =       -45.53431562 eV

  energy without entropy =      -45.53431049  energy(sigma->0) =      -45.53431305


--------------------------------------------------------------------------------------------------------




--------------------------------------- Iteration      1(   5)  ---------------------------------------


     EDDAV:  cpu time    0.4402: real time    0.4439
       DOS:  cpu time    0.0005: real time    0.0005
    CHARGE:  cpu time    0.0371: real time    0.0371
    MIXING:  cpu time    0.0016: real time    0.0016
    --------------------------------------------
      LOOP:  cpu time    0.4795: real time    0.4831

 eigenvalue-minimisations  :   512
 total energy-change (2. order) :-0.1571158E-01  (-0.1570154E-01)
 number of electron      51.9999991 magnetization 
 augmentation part        0.7128519 magnetization 

 Broyden mixing:
  rms(total) = 0.32325E+01    rms(broyden)= 0.32325E+01
  rms(prec ) = 0.33348E+01
  weight for this iteration     100.00

 Free energy of the ion-electron system (eV)
  ---------------------------------------------------
  alpha Z        PSCENC =       160.27286088
  Ewald energy   TEWEN  =     -2889.79643714
  -Hartree energ DENC   =     -1856.51750792
  -exchange      EXHF   =         0.00000000
  -V(xc)+E(xc)   XCENC  =       182.53454208
  PAW double counting   =      3865.57804258    -3815.84821480
  entropy T*S    EENTRO =        -0.00000589
  eigenvalues    EBANDS =      -523.61593572
  atomic energy  EATOM  =      4831.84262874
  Solvation  Ediel_sol  =         0.00000000
  ---------------------------------------------------
  free energy    TOTEN  =       -45.55002720 eV

  energy without entropy =      -45.55002130  energy(sigma->0) =      -45.55002425


--------------------------------------------------------------------------------------------------------




--------------------------------------- Iteration      1(   6)  ---------------------------------------


    POTLOK:  cpu time    0.0556: real time    0.0590
    SETDIJ:  cpu time    0.0053: real time    0.0053
     EDDAV:  cpu time    0.3552: real time    0.3552
       DOS:  cpu time    0.0003: real time    0.0002
    CHARGE:  cpu time    0.0360: real time    0.0360
    MIXING:  cpu time    0.0015: real time    0.0015
    --------------------------------------------
      LOOP:  cpu time    0.4538: real time    0.4573

 eigenvalue-minimisations  :   384
 total energy-change (2. order) : 0.1789022E+01  (-0.2327890E+01)
 number of electron      51.9999989 magnetization 
 augmentation part        2.0425365 magnetization 

 Broyden mixing:
  rms(total) = 0.13398E+01    rms(broyden)= 0.13398E+01
  rms(prec ) = 0.14952E+01
  weight for this iteration     100.00

 eigenvalues of (default mixing * dielectric matrix)
  average eigenvalue GAMMA=   1.0811
  1.0811

 Free energy of the ion-electron system (eV)
  ---------------------------------------------------
  alpha Z        PSCENC =       160.27286088
  Ewald energy   TEWEN  =     -2889.79643714
  -Hartree energ DENC   =     -1797.45469767
  -exchange      EXHF   =         0.00000000
  -V(xc)+E(xc)   XCENC  =       180.93172477
  PAW double counting   =      4543.43496131    -4500.50972459
  entropy T*S    EENTRO =        -0.00000000
  eigenvalues    EBANDS =      -572.48232156
  atomic energy  EATOM  =      4831.84262874
  Solvation  Ediel_sol  =         0.00000000
  ---------------------------------------------------
  free energy    TOTEN  =       -43.76100528 eV

  energy without entropy =      -43.76100528  energy(sigma->0) =      -43.76100528


--------------------------------------------------------------------------------------------------------




--------------------------------------- Iteration      1(   7)  ---------------------------------------


    POTLOK:  cpu time    0.0550: real time    0.0586
    SETDIJ:  cpu time    0.0053: real time    0.0053
     EDDAV:  cpu time    0.3566: real time    0.3567
       DOS:  cpu time    0.0006: real time    0.0006
    CHARGE:  cpu time    0.0364: real time    0.0364
    MIXING:  cpu time    0.0014: real time    0.0014
    --------------------------------------------
      LOOP:  cpu time    0.4554: real time    0.4590

 eigenvalue-minimisations  :   384
 total energy-change (2. order) : 0.5103301E+00  (-0.1390981E+01)
 number of electron      51.9999990 magnetization 
 augmentation part        1.2005171 magnetization 

 Broyden mixing:
  rms(total) = 0.87762E+00    rms(broyden)= 0.87762E+00
  rms(prec ) = 0.10053E+01
  weight for this iteration     100.00

 eigenvalues of (default mixing * dielectric matrix)
  average eigenvalue GAMMA=   1.1463
  1.7084  0.5841

 Free energy of the ion-electron system (eV)
  ---------------------------------------------------
  alpha Z        PSCENC =       160.27286088
  Ewald energy   TEWEN  =     -2889.79643714
  -Hartree energ DENC   =     -1841.85187130
  -exchange      EXHF   =         0.00000000
  -V(xc)+E(xc)   XCENC  =       181.66209788
  PAW double counting   =      5108.52731823    -5063.63898035
  entropy T*S    EENTRO =        -0.00008205
  eigenvalues    EBANDS =      -530.26821005
  atomic energy  EATOM  =      4831.84262874
  Solvation  Ediel_sol  =         0.00000000
  ---------------------------------------------------
  free energy    TOTEN  =       -43.25067517 eV

  energy without entropy =      -43.25059312  energy(sigma->0) =      -43.25063414


--------------------------------------------------------------------------------------------------------




--------------------------------------- Iteration      1(   8)  ---------------------------------------


    POTLOK:  cpu time    0.0549: real time    0.0587
    SETDIJ:  cpu time    0.0053: real time    0.0053
     EDDAV:  cpu time    0.3652: real time    0.3654
       DOS:  cpu time    0.0003: real time    0.0003
    CHARGE:  cpu time    0.0368: real time    0.0368
    MIXING:  cpu time    0.0014: real time    0.0014
    --------------------------------------------
      LOOP:  cpu time    0.4640: real time    0.4680

 eigenvalue-minimisations  :   400
 total energy-change (2. order) : 0.6208187E+00  (-0.3315667E+00)
 number of electron      51.9999990 magnetization 
 augmentation part        1.5311950 magnetization 

 Broyden mixing:
  rms(total) = 0.36353E+00    rms(broyden)= 0.36352E+00
  rms(prec ) = 0.38129E+00
  weight for this iteration     100.00

 eigenvalues of (default mixing * dielectric matrix)
  average eigenvalue GAMMA=   1.1567
  2.1820  0.7733  0.5149

 Free energy of the ion-electron system (eV)
  ---------------------------------------------------
  alpha Z        PSCENC =       160.27286088
  Ewald energy   TEWEN  =     -2889.79643714
  -Hartree energ DENC   =     -1822.11868775
  -exchange      EXHF   =         0.00000000
  -V(xc)+E(xc)   XCENC  =       181.23091130
  PAW double counting   =      5552.99206044    -5510.40182349
  entropy T*S    EENTRO =        -0.00000000
  eigenvalues    EBANDS =      -546.65136943
  atomic energy  EATOM  =      4831.84262874
  Solvation  Ediel_sol  =         0.00000000
  ---------------------------------------------------
  free energy    TOTEN  =       -42.62985646 eV

  energy without entropy =      -42.62985646  energy(sigma->0) =      -42.62985646


--------------------------------------------------------------------------------------------------------




--------------------------------------- Iteration      1(   9)  ---------------------------------------


    POTLOK:  cpu time    0.0549: real time    0.0585
    SETDIJ:  cpu time    0.0053: real time    0.0053
     EDDAV:  cpu time    0.4108: real time    0.4110
       DOS:  cpu time    0.0003: real time    0.0003
    CHARGE:  cpu time    0.0372: real time    0.0372
    MIXING:  cpu time    0.0015: real time    0.0015
    --------------------------------------------
      LOOP:  cpu time    0.5100: real time    0.5139

 eigenvalue-minimisations  :   456
 total energy-change (2. order) : 0.1521901E-01  (-0.3936206E-01)
 number of electron      51.9999990 magnetization 
 augmentation part        1.6051238 magnetization 

 Broyden mixing:
  rms(total) = 0.11980E+00    rms(broyden)= 0.11980E+00
  rms(prec ) = 0.13267E+00
  weight for this iteration     100.00

 eigenvalues of (default mixing * dielectric matrix)
  average eigenvalue GAMMA=   1.1126
  2.3419  1.0209  0.5438  0.5438

 Free energy of the ion-electron system (eV)
  ---------------------------------------------------
  alpha Z        PSCENC =       160.27286088
  Ewald energy   TEWEN  =     -2889.79643714
  -Hartree energ DENC   =     -1820.12175939
  -exchange      EXHF   =         0.00000000
  -V(xc)+E(xc)   XCENC  =       181.17669998
  PAW double counting   =      5779.03081507    -5737.01928136
  entropy T*S    EENTRO =        -0.00000000
  eigenvalues    EBANDS =      -548.00016422
  atomic energy  EATOM  =      4831.84262874
  Solvation  Ediel_sol  =         0.00000000
  ---------------------------------------------------
  free energy    TOTEN  =       -42.61463745 eV

  energy without entropy =      -42.61463745  energy(sigma->0) =      -42.61463745


--------------------------------------------------------------------------------------------------------




--------------------------------------- Iteration      1(  10)  ---------------------------------------


    POTLOK:  cpu time    0.0555: real time    0.0582
    SETDIJ:  cpu time    0.0053: real time    0.0053
     EDDAV:  cpu time    0.4182: real time    0.4182
       DOS:  cpu time    0.0003: real time    0.0003
    CHARGE:  cpu time    0.0368: real time    0.0368
    MIXING:  cpu time    0.0015: real time    0.0015
    --------------------------------------------
      LOOP:  cpu time    0.5176: real time    0.5203

 eigenvalue-minimisations  :   480
 total energy-change (2. order) : 0.6254614E-02  (-0.3173417E-02)
 number of electron      51.9999990 magnetization 
 augmentation part        1.5823484 magnetization 

 Broyden mixing:
  rms(total) = 0.57695E-01    rms(broyden)= 0.57695E-01
  rms(prec ) = 0.63781E-01
  weight for this iteration     100.00

 eigenvalues of (default mixing * dielectric matrix)
  average eigenvalue GAMMA=   1.1182
  2.2742  1.2803  0.8667  0.5850  0.5850

 Free energy of the ion-electron system (eV)
  ---------------------------------------------------
  alpha Z        PSCENC =       160.27286088
  Ewald energy   TEWEN  =     -2889.79643714
  -Hartree energ DENC   =     -1821.89513159
  -exchange      EXHF   =         0.00000000
  -V(xc)+E(xc)   XCENC  =       181.22987796
  PAW double counting   =      5844.64877053    -5802.61997999
  entropy T*S    EENTRO =        -0.00000000
  eigenvalues    EBANDS =      -546.29097222
  atomic energy  EATOM  =      4831.84262874
  Solvation  Ediel_sol  =         0.00000000
  ---------------------------------------------------
  free energy    TOTEN  =       -42.60838284 eV

  energy without entropy =      -42.60838284  energy(sigma->0) =      -42.60838284


--------------------------------------------------------------------------------------------------------




--------------------------------------- Iteration      1(  11)  ---------------------------------------


    POTLOK:  cpu time    0.0547: real time    0.0585
    SETDIJ:  cpu time    0.0054: real time    0.0054
     EDDAV:  cpu time    0.4087: real time    0.4087
       DOS:  cpu time    0.0003: real time    0.0003
    CHARGE:  cpu time    0.0368: real time    0.0368
    MIXING:  cpu time    0.0015: real time    0.0015
    --------------------------------------------
      LOOP:  cpu time    0.5073: real time    0.5111

 eigenvalue-minimisations  :   464
 total energy-change (2. order) : 0.1424256E-02  (-0.9718421E-03)
 number of electron      51.9999990 magnetization 
 augmentation part        1.5590260 magnetization 

 Broyden mixing:
  rms(total) = 0.22627E-01    rms(broyden)= 0.22626E-01
  rms(prec ) = 0.23516E-01
  weight for this iteration     100.00

 eigenvalues of (default mixing * dielectric matrix)
  average eigenvalue GAMMA=   1.2421
  2.4231  1.9915  1.1722  0.7126  0.5767  0.5767

 Free energy of the ion-electron system (eV)
  ---------------------------------------------------
  alpha Z        PSCENC =       160.27286088
  Ewald energy   TEWEN  =     -2889.79643714
  -Hartree energ DENC   =     -1823.17880560
  -exchange      EXHF   =         0.00000000
  -V(xc)+E(xc)   XCENC  =       181.27200362
  PAW double counting   =      5831.33204043    -5789.18225865
  entropy T*S    EENTRO =        -0.00000000
  eigenvalues    EBANDS =      -545.16899085
  atomic energy  EATOM  =      4831.84262874
  Solvation  Ediel_sol  =         0.00000000
  ---------------------------------------------------
  free energy    TOTEN  =       -42.60695858 eV

  energy without entropy =      -42.60695858  energy(sigma->0) =      -42.60695858


--------------------------------------------------------------------------------------------------------




--------------------------------------- Iteration      1(  12)  ---------------------------------------


    POTLOK:  cpu time    0.0549: real time    0.0583
    SETDIJ:  cpu time    0.0054: real time    0.0054
     EDDAV:  cpu time    0.4293: real time    0.4294
       DOS:  cpu time    0.0003: real time    0.0003
    CHARGE:  cpu time    0.0368: real time    0.0368
    MIXING:  cpu time    0.0016: real time    0.0016
    --------------------------------------------
      LOOP:  cpu time    0.5282: real time    0.5316

 eigenvalue-minimisations  :   496
 total energy-change (2. order) :-0.1974590E-03  (-0.8586463E-04)
 number of electron      51.9999990 magnetization 
 augmentation part        1.5599396 magnetization 

 Broyden mixing:
  rms(total) = 0.56732E-02    rms(broyden)= 0.56731E-02
  rms(prec ) = 0.65258E-02
  weight for this iteration     100.00

 eigenvalues of (default mixing * dielectric matrix)
  average eigenvalue GAMMA=   1.2265
  2.3248  2.3248  1.2504  0.7704  0.7704  0.5722  0.5722

 Free energy of the ion-electron system (eV)
  ---------------------------------------------------
  alpha Z        PSCENC =       160.27286088
  Ewald energy   TEWEN  =     -2889.79643714
  -Hartree energ DENC   =     -1823.51167770
  -exchange      EXHF   =         0.00000000
  -V(xc)+E(xc)   XCENC  =       181.28800617
  PAW double counting   =      5834.49217974    -5792.33270889
  entropy T*S    EENTRO =        -0.00000000
  eigenvalues    EBANDS =      -544.86200783
  atomic energy  EATOM  =      4831.84262874
  Solvation  Ediel_sol  =         0.00000000
  ---------------------------------------------------
  free energy    TOTEN  =       -42.60715604 eV

  energy without entropy =      -42.60715604  energy(sigma->0) =      -42.60715604


--------------------------------------------------------------------------------------------------------




--------------------------------------- Iteration      1(  13)  ---------------------------------------


    POTLOK:  cpu time    0.0548: real time    0.0580
    SETDIJ:  cpu time    0.0054: real time    0.0054
     EDDAV:  cpu time    0.4129: real time    0.4129
       DOS:  cpu time    0.0003: real time    0.0003
    CHARGE:  cpu time    0.0367: real time    0.0367
    MIXING:  cpu time    0.0016: real time    0.0016
    --------------------------------------------
      LOOP:  cpu time    0.5116: real time    0.5150

 eigenvalue-minimisations  :   472
 total energy-change (2. order) :-0.1798640E-04  (-0.9242828E-05)
 number of electron      51.9999990 magnetization 
 augmentation part        1.5592161 magnetization 

 Broyden mixing:
  rms(total) = 0.36472E-02    rms(broyden)= 0.36472E-02
  rms(prec ) = 0.40148E-02
  weight for this iteration     100.00

 eigenvalues of (default mixing * dielectric matrix)
  average eigenvalue GAMMA=   1.2295
  2.3851  2.3851  1.2288  0.9896  0.9896  0.5832  0.5832  0.6911

 Free energy of the ion-electron system (eV)
  ---------------------------------------------------
  alpha Z        PSCENC =       160.27286088
  Ewald energy   TEWEN  =     -2889.79643714
  -Hartree energ DENC   =     -1823.65623867
  -exchange      EXHF   =         0.00000000
  -V(xc)+E(xc)   XCENC  =       181.29123596
  PAW double counting   =      5828.80746798    -5786.63757157
  entropy T*S    EENTRO =        -0.00000000
  eigenvalues    EBANDS =      -544.73112021
  atomic energy  EATOM  =      4831.84262874
  Solvation  Ediel_sol  =         0.00000000
  ---------------------------------------------------
  free energy    TOTEN  =       -42.60717403 eV

  energy without entropy =      -42.60717403  energy(sigma->0) =      -42.60717403


--------------------------------------------------------------------------------------------------------




--------------------------------------- Iteration      1(  14)  ---------------------------------------


    POTLOK:  cpu time    0.0549: real time    0.0576
    SETDIJ:  cpu time    0.0053: real time    0.0053
     EDDAV:  cpu time    0.4128: real time    0.4129
       DOS:  cpu time    0.0002: real time    0.0002
    CHARGE:  cpu time    0.0367: real time    0.0367
    MIXING:  cpu time    0.0017: real time    0.0017
    --------------------------------------------
      LOOP:  cpu time    0.5117: real time    0.5145

 eigenvalue-minimisations  :   472
 total energy-change (2. order) :-0.1812199E-04  (-0.3552286E-05)
 number of electron      51.9999990 magnetization 
 augmentation part        1.5594620 magnetization 

 Broyden mixing:
  rms(total) = 0.19761E-02    rms(broyden)= 0.19761E-02
  rms(prec ) = 0.21316E-02
  weight for this iteration     100.00

 eigenvalues of (default mixing * dielectric matrix)
  average eigenvalue GAMMA=   1.2813
  2.4689  2.4689  1.4504  1.4504  0.9943  0.5777  0.5777  0.7718  0.7718

 Free energy of the ion-electron system (eV)
  ---------------------------------------------------
  alpha Z        PSCENC =       160.27286088
  Ewald energy   TEWEN  =     -2889.79643714
  -Hartree energ DENC   =     -1823.72407650
  -exchange      EXHF   =         0.00000000
  -V(xc)+E(xc)   XCENC  =       181.29321071
  PAW double counting   =      5827.22917832    -5785.05861738
  entropy T*S    EENTRO =        -0.00000000
  eigenvalues    EBANDS =      -544.66593977
  atomic energy  EATOM  =      4831.84262874
  Solvation  Ediel_sol  =         0.00000000
  ---------------------------------------------------
  free energy    TOTEN  =       -42.60719215 eV

  energy without entropy =      -42.60719215  energy(sigma->0) =      -42.60719215


--------------------------------------------------------------------------------------------------------




--------------------------------------- Iteration      1(  15)  ---------------------------------------


    POTLOK:  cpu time    0.0547: real time    0.0580
    SETDIJ:  cpu time    0.0054: real time    0.0054
     EDDAV:  cpu time    0.3421: real time    0.3421
       DOS:  cpu time    0.0002: real time    0.0002
    CHARGE:  cpu time    0.0367: real time    0.0368
    MIXING:  cpu time    0.0017: real time    0.0017
    --------------------------------------------
      LOOP:  cpu time    0.4409: real time    0.4442

 eigenvalue-minimisations  :   360
 total energy-change (2. order) :-0.1062183E-04  (-0.1334011E-05)
 number of electron      51.9999990 magnetization 
 augmentation part        1.5597149 magnetization 

 Broyden mixing:
  rms(total) = 0.68734E-03    rms(broyden)= 0.68733E-03
  rms(prec ) = 0.73986E-03
  weight for this iteration     100.00

 eigenvalues of (default mixing * dielectric matrix)
  average eigenvalue GAMMA=   1.2983
  2.7233  2.1068  2.1068  1.4615  0.5784  0.5784  0.7392  0.8685  0.9101  0.9101

 Free energy of the ion-electron system (eV)
  ---------------------------------------------------
  alpha Z        PSCENC =       160.27286088
  Ewald energy   TEWEN  =     -2889.79643714
  -Hartree energ DENC   =     -1823.76616812
  -exchange      EXHF   =         0.00000000
  -V(xc)+E(xc)   XCENC  =       181.29474916
  PAW double counting   =      5826.51663558    -5784.34631324
  entropy T*S    EENTRO =        -0.00000000
  eigenvalues    EBANDS =      -544.62515862
  atomic energy  EATOM  =      4831.84262874
  Solvation  Ediel_sol  =         0.00000000
  ---------------------------------------------------
  free energy    TOTEN  =       -42.60720277 eV

  energy without entropy =      -42.60720277  energy(sigma->0) =      -42.60720277


--------------------------------------------------------------------------------------------------------




--------------------------------------- Iteration      1(  16)  ---------------------------------------


    POTLOK:  cpu time    0.0549: real time    0.0580
    SETDIJ:  cpu time    0.0054: real time    0.0054
     EDDAV:  cpu time    0.3536: real time    0.3536
       DOS:  cpu time    0.0002: real time    0.0002
    CHARGE:  cpu time    0.0369: real time    0.0369
    MIXING:  cpu time    0.0018: real time    0.0018
    --------------------------------------------
      LOOP:  cpu time    0.4528: real time    0.4560

 eigenvalue-minimisations  :   376
 total energy-change (2. order) :-0.1929575E-05  (-0.1584548E-06)
 number of electron      51.9999990 magnetization 
 augmentation part        1.5598030 magnetization 

 Broyden mixing:
  rms(total) = 0.34027E-03    rms(broyden)= 0.34027E-03
  rms(prec ) = 0.36443E-03
  weight for this iteration     100.00

 eigenvalues of (default mixing * dielectric matrix)
  average eigenvalue GAMMA=   1.3349
  2.8287  2.1912  2.1912  1.3769  1.2729  1.2729  0.5783  0.5783  0.8932  0.7498
  0.7498

 Free energy of the ion-electron system (eV)
  ---------------------------------------------------
  alpha Z        PSCENC =       160.27286088
  Ewald energy   TEWEN  =     -2889.79643714
  -Hartree energ DENC   =     -1823.77397053
  -exchange      EXHF   =         0.00000000
  -V(xc)+E(xc)   XCENC  =       181.29522077
  PAW double counting   =      5826.50458362    -5784.33460343
  entropy T*S    EENTRO =        -0.00000000
  eigenvalues    EBANDS =      -544.61748760
  atomic energy  EATOM  =      4831.84262874
  Solvation  Ediel_sol  =         0.00000000
  ---------------------------------------------------
  free energy    TOTEN  =       -42.60720470 eV

  energy without entropy =      -42.60720470  energy(sigma->0) =      -42.60720470


--------------------------------------------------------------------------------------------------------




--------------------------------------- Iteration      1(  17)  ---------------------------------------


    POTLOK:  cpu time    0.0547: real time    0.0580
    SETDIJ:  cpu time    0.0054: real time    0.0054
     EDDAV:  cpu time    0.2853: real time    0.2853
       DOS:  cpu time    0.0002: real time    0.0002
    --------------------------------------------
      LOOP:  cpu time    0.3456: real time    0.3489

 eigenvalue-minimisations  :   272
 total energy-change (2. order) :-0.4254907E-06  (-0.4125075E-07)
 number of electron      51.9999990 magnetization 
 augmentation part        1.5598030 magnetization 

 Free energy of the ion-electron system (eV)
  ---------------------------------------------------
  alpha Z        PSCENC =       160.27286088
  Ewald energy   TEWEN  =     -2889.79643714
  -Hartree energ DENC   =     -1823.77974266
  -exchange      EXHF   =         0.00000000
  -V(xc)+E(xc)   XCENC  =       181.29552875
  PAW double counting   =      5826.50033952    -5784.33023024
  entropy T*S    EENTRO =        -0.00000000
  eigenvalues    EBANDS =      -544.61215296
  atomic energy  EATOM  =      4831.84262874
  Solvation  Ediel_sol  =         0.00000000
  ---------------------------------------------------
  free energy    TOTEN  =       -42.60720512 eV

  energy without entropy =      -42.60720512  energy(sigma->0) =      -42.60720512


--------------------------------------------------------------------------------------------------------




 average (electrostatic) potential at core
  the test charge radii are     1.0818  0.9698
  (the norm of the test charge is              1.0000)
       1 -75.7972       2 -75.9175       3 -85.6177       4 -85.7681       5 -85.6305
       6 -85.6619
 
 
 
 E-fermi :   6.5001     XC(G=0): -10.1937     alpha+bet :-12.2268

 Fermi energy:         6.5001392303

 k-point     1 :       0.2500    0.2500    0.0000
  band No.  band energies     occupation 
      1     -55.1261      2.00000
      2     -55.0291      2.00000
      3     -29.3626      2.00000
      4     -29.2935      2.00000
      5     -29.2755      2.00000
      6     -29.2221      2.00000
      7     -29.2009      2.00000
      8     -29.1150      2.00000
      9      -6.5594      2.00000
     10      -6.4700      2.00000
     11      -6.3378      2.00000
     12      -6.2521      2.00000
     13       0.6152      2.00000
     14       0.7650      2.00000
     15       0.8233      2.00000
     16       1.0240      2.00000
     17       1.9541      2.00000
     18       2.0850      2.00000
     19       2.3436      2.00000
     20       2.4725      2.00000
     21       2.5830      2.00000
     22       2.8241      2.00000
     23       3.8256      2.00000
     24       4.0350      2.00000
     25       5.2160      2.00000
     26       6.2752      2.00000
     27       6.9971      0.00000
     28       7.8174      0.00000
     29       8.2720      0.00000
     30       8.5352      0.00000
     31       8.7656      0.00000
     32       8.8718      0.00000

 k-point     2 :      -0.2500    0.5000    0.0000
  band No.  band energies     occupation 
      1     -55.1261      2.00000
      2     -55.0284      2.00000
      3     -29.3636      2.00000
      4     -29.3529      2.00000
      5     -29.2755      2.00000
      6     -29.2211      2.00000
      7     -29.2095      2.00000
      8     -29.0555      2.00000
      9      -6.5798      2.00000
     10      -6.5495      2.00000
     11      -6.3174      2.00000
     12      -6.2392      2.00000
     13       0.5758      2.00000
     14       0.6545      2.00000
     15       0.8234      2.00000
     16       1.4745      2.00000
     17       1.9927      2.00000
     18       2.0911      2.00000
     19       2.3543      2.00000
     20       2.5393      2.00000
     21       2.7888      2.00000
     22       2.9360      2.00000
     23       3.3574      2.00000
     24       4.0450      2.00000
     25       5.2167      2.00000
     26       6.2592      2.00000
     27       6.8897      0.00000
     28       7.8170      0.00000
     29       8.2079      0.00000
     30       8.3341      0.00000
     31       8.5929      0.00000
     32       8.8011      0.00000

 k-point     3 :       0.5000    0.2500    0.0000
  band No.  band energies     occupation 
      1     -55.1261      2.00000
      2     -55.0290      2.00000
      3     -29.3623      2.00000
      4     -29.3309      2.00000
      5     -29.2755      2.00000
      6     -29.2224      2.00000
      7     -29.1887      2.00000
      8     -29.0901      2.00000
      9      -6.5573      2.00000
     10      -6.4686      2.00000
     11      -6.3356      2.00000
     12      -6.2635      2.00000
     13       0.6062      2.00000
     14       0.6823      2.00000
     15       0.8243      2.00000
     16       1.1048      2.00000
     17       1.9640      2.00000
     18       2.1031      2.00000
     19       2.2930      2.00000
     20       2.5200      2.00000
     21       2.6660      2.00000
     22       2.8329      2.00000
     23       3.7668      2.00000
     24       4.0365      2.00000
     25       5.2164      2.00000
     26       6.1513      2.00000
     27       7.0443      0.00000
     28       7.8249      0.00000
     29       8.2818      0.00000
     30       8.5129      0.00000
     31       8.7392      0.00000
     32       8.8606      0.00000

 k-point     4 :      -0.2500    0.2500    0.0000
  band No.  band energies     occupation 
      1     -55.1440      2.00000
      2     -55.0462      2.00000
      3     -29.3177      2.00000
      4     -29.3113      2.00000
      5     -29.2524      2.00000
      6     -29.1613      2.00000
      7     -29.1123      2.00000
      8     -28.9552      2.00000
      9      -7.5585      2.00000
     10      -7.3431      2.00000
     11      -6.9377      2.00000
     12      -6.7228      2.00000
     13       0.6637      2.00000
     14       1.2736      2.00000
     15       1.5088      2.00000
     16       1.9294      2.00000
     17       2.0545      2.00000
     18       2.1852      2.00000
     19       3.2235      2.00000
     20       3.4186      2.00000
     21       3.9077      2.00000
     22       3.9378      2.00000
     23       4.3503      2.00000
     24       4.5261      2.00000
     25       4.9926      2.00000
     26       5.6859      2.00000
     27       6.7242      0.00000
     28       7.4777      0.00000
     29       8.0204      0.00000
     30       8.0532      0.00000
     31       8.5526      0.00000
     32       8.9583      0.00000

 k-point     5 :      -0.2500    0.0000    0.0000
  band No.  band energies     occupation 
      1     -55.1440      2.00000
      2     -55.0469      2.00000
      3     -29.3113      2.00000
      4     -29.3087      2.00000
      5     -29.2514      2.00000
      6     -29.1133      2.00000
      7     -29.0884      2.00000
      8     -29.0280      2.00000
      9      -7.5773      2.00000
     10      -7.4648      2.00000
     11      -6.8019      2.00000
     12      -6.6573      2.00000
     13       0.5869      2.00000
     14       0.9852      2.00000
     15       1.8002      2.00000
     16       1.9409      2.00000
     17       2.1727      2.00000
     18       2.4423      2.00000
     19       2.6611      2.00000
     20       3.2238      2.00000
     21       3.8881      2.00000
     22       3.9326      2.00000
     23       4.5154      2.00000
     24       4.7241      2.00000
     25       4.9794      2.00000
     26       5.5171      2.00000
     27       6.7238      0.00000
     28       7.2496      0.00000
     29       7.8995      0.00000
     30       8.0543      0.00000
     31       8.5597      0.00000
     32       9.0116      0.00000

 k-point     6 :       0.0000   -0.2500    0.0000
  band No.  band energies     occupation 
      1     -55.1440      2.00000
      2     -55.0463      2.00000
      3     -29.3113      2.00000
      4     -29.3068      2.00000
      5     -29.2528      2.00000
      6     -29.1454      2.00000
      7     -29.1119      2.00000
      8     -28.9817      2.00000
      9      -7.5597      2.00000
     10      -7.3633      2.00000
     11      -6.9136      2.00000
     12      -6.7194      2.00000
     13       0.6588      2.00000
     14       1.2789      2.00000
     15       1.5227      2.00000
     16       1.9144      2.00000
     17       2.1018      2.00000
     18       2.1977      2.00000
     19       3.2187      2.00000
     20       3.2439      2.00000
     21       3.9274      2.00000
     22       3.9546      2.00000
     23       4.2827      2.00000
     24       4.5263      2.00000
     25       4.9931      2.00000
     26       5.9215      2.00000
     27       6.7245      0.00000
     28       7.4313      0.00000
     29       8.0103      0.00000
     30       8.0528      0.00000
     31       8.5528      0.00000
     32       8.8735      0.00000


--------------------------------------------------------------------------------------------------------


 soft charge-density along one line, spin component           1
         0         1         2         3         4         5         6         7         8         9
 total charge-density along one line
 
 pseudopotential strength for first ion, spin component:           1
 -5.055  11.419  -0.004  -0.011   0.005  -0.000   0.015  -0.006
 11.419   3.266  -0.000   0.012  -0.004   0.001  -0.003   0.001
 -0.004  -0.000 -18.103   0.010   0.003   8.940  -0.012  -0.001
 -0.011   0.012   0.010 -18.123  -0.003  -0.012   8.962   0.003
  0.005  -0.004   0.003  -0.003 -18.092  -0.001   0.003   8.925
 -0.000   0.001   8.940  -0.012  -0.001   5.739   0.006   0.001
  0.015  -0.003  -0.012   8.962   0.003   0.006   5.725  -0.002
 -0.006   0.001  -0.001   0.003   8.925   0.001  -0.002   5.746
  0.003  -0.000   0.006  -0.004   0.004  -0.004   0.002  -0.003
  0.012  -0.007  -0.014   0.002  -0.004   0.009  -0.002   0.002
 -0.017   0.010   0.004  -0.015  -0.002  -0.001   0.010   0.001
 -0.003   0.002  -0.004   0.005  -0.008   0.002  -0.003   0.007
  0.008  -0.005   0.008   0.003   0.003  -0.003  -0.001  -0.002
  0.003  -0.000   0.006  -0.004   0.004  -0.004   0.002  -0.003
  0.012  -0.008  -0.014   0.002  -0.004   0.009  -0.002   0.002
 -0.017   0.010   0.004  -0.015  -0.002  -0.001   0.010   0.001
 -0.003   0.002  -0.004   0.005  -0.009   0.002  -0.004   0.007
  0.008  -0.006   0.008   0.003   0.003  -0.003  -0.001  -0.002
 total augmentation occupancy for first ion, spin component:           1
  1.996  -0.038   0.000   0.000  -0.000   0.000   0.000  -0.000  -0.013  -0.009   0.025   0.009  -0.006   0.011   0.008  -0.023
 -0.038   1.255   0.006   0.003  -0.002  -0.027   0.003   0.005  -0.421   0.218  -0.300   0.047   0.295   0.414  -0.262   0.396
  0.000   0.006   1.999  -0.000   0.000  -0.041   0.002  -0.002  -0.004   0.004   0.003  -0.011  -0.004   0.004  -0.004  -0.001
  0.000   0.003  -0.000   1.999   0.000   0.002  -0.048  -0.001  -0.007   0.024   0.007  -0.006   0.006  -0.001  -0.016  -0.011
 -0.000  -0.002   0.000   0.000   1.998  -0.002  -0.001  -0.038   0.010  -0.010   0.007   0.020  -0.008  -0.003   0.002  -0.005
  0.000  -0.027  -0.041   0.002  -0.002   0.096  -0.012   0.011   0.005  -0.029   0.029  -0.096   0.038  -0.011   0.043  -0.036
  0.000   0.003   0.002  -0.048  -0.001  -0.012   0.124   0.003  -0.118   0.068  -0.061   0.024   0.078   0.139  -0.093   0.084
 -0.000   0.005  -0.002  -0.001  -0.038   0.011   0.003   0.079   0.078  -0.100  -0.002   0.103   0.001  -0.100   0.120  -0.003
 -0.013  -0.421  -0.004  -0.007   0.010   0.005  -0.118   0.078   2.684  -0.128   0.136   0.759  -0.216  -2.892   0.115  -0.151
 -0.009   0.218   0.004   0.024  -0.010  -0.029   0.068  -0.100  -0.128   4.871  -0.385   1.093   1.078   0.114  -5.800   0.505
  0.025  -0.300   0.003   0.007   0.007   0.029  -0.061  -0.002   0.136  -0.385   2.125  -0.106  -0.174  -0.152   0.507  -2.343
  0.009   0.047  -0.011  -0.006   0.020  -0.096   0.024   0.103   0.759   1.093  -0.106   3.303   0.106  -1.053  -1.358   0.112
 -0.006   0.295  -0.004   0.006  -0.008   0.038   0.078   0.001  -0.216   1.078  -0.174   0.106   2.657   0.308  -1.549   0.121
  0.011   0.414   0.004  -0.001  -0.003  -0.011   0.139  -0.100  -2.892   0.114  -0.152  -1.053   0.308   3.871  -0.127   0.170
  0.008  -0.262  -0.004  -0.016   0.002   0.043  -0.093   0.120   0.115  -5.800   0.507  -1.358  -1.549  -0.127   7.398  -0.606
 -0.023   0.396  -0.001  -0.011  -0.005  -0.036   0.084  -0.003  -0.151   0.505  -2.343   0.112   0.121   0.170  -0.606   3.332
 -0.009  -0.043   0.003   0.004  -0.010   0.119  -0.022  -0.119  -1.051  -1.358   0.113  -3.921  -0.095   1.275   1.601  -0.117
  0.006  -0.283   0.008  -0.002   0.008  -0.056  -0.088  -0.002   0.308  -1.551   0.125  -0.096  -2.616  -0.347   1.893  -0.119


------------------------ aborting loop because EDIFF is reached ----------------------------------------


    CHARGE:  cpu time    0.0380: real time    0.0380
    FORLOC:  cpu time    0.0046: real time    0.0047
    FORNL :  cpu time    0.0751: real time    0.0756
    STRESS:  cpu time    0.1526: real time    0.1526
    FORCOR:  cpu time    0.0594: real time    0.0594
    FORHAR:  cpu time    0.0146: real time    0.0146
    MIXING:  cpu time    0.0019: real time    0.0019
    OFIELD:  cpu time    0.0000: real time    0.0000

  FORCE on cell =-STRESS in cart. coord.  units (eV):
  Direction    XX          YY          ZZ          XY          YZ          ZX
  --------------------------------------------------------------------------------------
  Alpha Z   160.27286   160.27286   160.27286
  Ewald    -144.57142   -70.09764 -2675.13024    57.06218   -25.22370     1.28953
  Hartree  1310.99833  1338.25492  -825.47020    22.24589    -7.23469     0.79628
  E(xc)    -219.05300  -218.93810  -219.29069     0.10381    -0.03528     0.00084
  Local   -2175.05690 -2274.43564  2489.19425   -79.75284    30.63821    -1.04734
  n-local   235.96812   238.55614   249.23895     2.06214    -1.83190    -0.02310
  augment    -0.65885    -1.34221    -4.46129    -0.26884     0.52142    -0.02451
  Kinetic   831.86769   828.53506   824.60551    -1.59008     1.14528    -0.25946
  Fock        0.00000     0.00000     0.00000     0.00000     0.00000     0.00000
  -------------------------------------------------------------------------------------
  Total      -0.23316     0.80540    -1.04086    -0.13774    -2.02068     0.73224
  in kB      -3.16401    10.92945   -14.12475    -1.86912   -27.42112     9.93673
  external pressure =       -2.12 kB  Pullay stress =        0.00 kB


 VOLUME and BASIS-vectors are now :
 -----------------------------------------------------------------------------
  energy-cutoff  :      500.00
  volume of cell :      118.07
      direct lattice vectors                 reciprocal lattice vectors
     1.596118927 -2.764559076  0.000000000     0.313259865 -0.180860668  0.000000000
     1.596118927  2.764559076  0.000000000     0.313259865  0.180860668  0.000000000
     0.000000000  0.000000000 13.378293991     0.000000000  0.000000000  0.074747946

  length of vectors
     3.192237854  3.192237854 13.378293991     0.361721335  0.361721335  0.074747946


 FORCES acting on ions
    electron-ion (+dipol)            ewald-force                    non-local-force                 convergence-correction
 -----------------------------------------------------------------------------------------------
   0.519E+00 -.156E+02 0.102E+02   0.293E+00 0.147E+02 -.121E+02   -.309E+00 0.111E+01 0.832E-01   0.914E-04 -.206E-03 0.102E-01
   0.205E-01 -.896E-02 -.166E+02   -.267E-01 0.129E-01 0.166E+02   -.726E-02 0.438E-02 0.349E-01   0.641E-05 0.335E-05 -.436E-02
   0.200E-01 -.136E+00 0.407E+03   -.358E-02 0.134E+00 -.412E+03   -.127E-01 0.577E-02 0.511E+01   -.390E-05 -.491E-05 0.259E-04
   -.812E+00 0.161E+02 -.388E+03   0.330E+00 -.151E+02 0.391E+03   0.469E+00 -.169E+01 -.247E+01   -.168E-04 0.853E-04 0.293E-02
   0.159E-01 -.925E-02 -.422E+03   -.398E-05 0.169E-03 0.426E+03   -.643E-02 0.330E-02 -.500E+01   -.373E-05 -.134E-04 -.313E-02
   0.557E+00 -.353E+00 0.406E+03   -.593E+00 0.286E+00 -.410E+03   -.454E+00 0.609E+00 0.455E+01   -.108E-03 0.126E-03 0.830E-03
 -----------------------------------------------------------------------------------------------
   0.320E+00 -.408E-01 -.232E+01   -.299E-13 0.705E-14 -.114E-12   -.320E+00 0.408E-01 0.231E+01   -.350E-04 -.917E-05 0.646E-02
 
 
 POSITION                                       TOTAL-FORCE (eV/Angst)
 -----------------------------------------------------------------------------------
      1.59612     -0.92152      3.34457         0.503175      0.169509     -1.781265
      1.59612      0.92152     10.03372        -0.013464      0.008341      0.016048
      1.59612     -0.92152      8.46956         0.003742      0.003855      0.303029
      2.63897      0.45270      5.03791        -0.012714     -0.718155      0.728271
      1.59612     -0.92152     11.59788         0.009464     -0.005800     -0.297120
      1.59612      0.92152      1.78041        -0.490203      0.542250      1.031038
 -----------------------------------------------------------------------------------
    total drift:                                0.000089      0.000034     -0.000099


--------------------------------------------------------------------------------------------------------



  FREE ENERGIE OF THE ION-ELECTRON SYSTEM (eV)
  ---------------------------------------------------
  free  energy   TOTEN  =       -42.60720512 eV

  energy  without entropy=      -42.60720512  energy(sigma->0) =      -42.60720512
 


--------------------------------------------------------------------------------------------------------


    POTLOK:  cpu time    0.0602: real time    0.0603


--------------------------------------------------------------------------------------------------------


 stress matrix after NEB project (eV)
     -0.23316     -0.13774      0.73224
     -0.13774      0.80540     -2.02068
      0.73224     -2.02068     -1.04086
  FORCES: max atom, RMS     1.858716    1.023006
  FORCE total and by dimension    2.505843    1.781265
  Stress total and by dimension    3.326104    2.020675
 writing wavefunctions
     LOOP+:  cpu time    9.1160: real time    9.1836
    4ORBIT:  cpu time    0.0000: real time    0.0000

 total amount of memory used by VASP MPI-rank0    38677. kBytes
=======================================================================

   base      :      30000. kBytes
   nonl-proj :       1371. kBytes
   fftplans  :       2330. kBytes
   grid      :       3750. kBytes
   one-center:         31. kBytes
   wavefun   :       1195. kBytes
 
  
  
 General timing and accounting informations for this job:
 ========================================================
  
                  Total CPU time used (sec):       10.774
                            User time (sec):        9.865
                          System time (sec):        0.909
                         Elapsed time (sec):       11.266
  
                   Maximum memory used (kb):      126692.
                   Average memory used (kb):          N/A
  
                          Minor page faults:        26540
                          Major page faults:            0
                 Voluntary context switches:          984
