 vasp.6.2.0 18Jan21 (build Jul 31 2023 14:19:35) complex                        
  
 executed on             LinuxIFC date 2025.09.17  12:23:16
 running on    8 total cores
 distrk:  each k-point on    8 cores,    1 groups
 distr:  one band on NCORE=   4 cores,    2 groups


--------------------------------------------------------------------------------------------------------


 INCAR:
   SYSTEM = MoS2_SinglePoint_vdW_Coulomb
   PREC = Accurate
   ENCUT = 500
   GGA = PE
   ALGO = Normal
   NELM = 100
   NELMIN = 5
   EDIFF = 1E-6
   ISMEAR = 0
   SIGMA = 0.05
   IBRION = -1
   NSW = 0
   IVDW = 12
   LREAL = .FALSE.
   LCHARG = .TRUE.
   LWAVE = .TRUE.
   NWRITE = 1
   NCORE = 4

 POTCAR:    PAW_PBE Mo_sv 02Feb2006               
 POTCAR:    PAW_PBE S 06Sep2000                   
 POTCAR:    PAW_PBE Mo_sv 02Feb2006               
  local pseudopotential read in
  partial core-charges read in
  partial kinetic energy density read in
  atomic valenz-charges read in
  non local Contribution for L=           0  read in
    real space projection operators read in
  non local Contribution for L=           0  read in
    real space projection operators read in
  non local Contribution for L=           1  read in
    real space projection operators read in
  non local Contribution for L=           1  read in
    real space projection operators read in
  non local Contribution for L=           2  read in
    real space projection operators read in
  non local Contribution for L=           2  read in
    real space projection operators read in
    PAW grid and wavefunctions read in
 
   number of l-projection  operators is LMAX  =           6
   number of lm-projection operators is LMMAX =          18
 
 POTCAR:    PAW_PBE S 06Sep2000                   
  local pseudopotential read in
  partial core-charges read in
  partial kinetic energy density read in
  atomic valenz-charges read in
  non local Contribution for L=           0  read in
    real space projection operators read in
  non local Contribution for L=           0  read in
    real space projection operators read in
  non local Contribution for L=           1  read in
    real space projection operators read in
  non local Contribution for L=           1  read in
    real space projection operators read in
    PAW grid and wavefunctions read in
 
   number of l-projection  operators is LMAX  =           4
   number of lm-projection operators is LMMAX =           8
 
  PAW_PBE Mo_sv 02Feb2006               :
 energy of atom  1       EATOM=-1862.2866
 kinetic energy error for atom=    0.0074 (will be added to EATOM!!)
  PAW_PBE S 06Sep2000                   :
 energy of atom  2       EATOM= -276.8230
 kinetic energy error for atom=    0.0020 (will be added to EATOM!!)
 
 
 POSCAR: Mo S
  positions in direct lattice
  No initial velocities read in
 exchange correlation table for  LEXCH =        8
   RHO(1)=    0.500       N(1)  =     2000
   RHO(2)=  100.500       N(2)  =     4000

 VTST: version 4.0, (05/15/20)

 CHAIN: initializing optimizer
 
 OPT: Using VASP Dynamics algorithm
 CHAIN: Read ICHAIN            0
 
 POSCAR: Mo S
  positions in direct lattice
  No initial velocities read in
 


--------------------------------------------------------------------------------------------------------


 ion  position               nearest neighbor table
   1  0.667  0.333  0.250-   6 2.42   6 2.42   4 2.42   6 2.42
   2  0.333  0.667  0.750-   3 2.42   5 2.42   3 2.42   5 2.42   3 2.42   5 2.42
   3  0.667  0.333  0.633-   2 2.42   2 2.42   2 2.42
   4  0.989  0.437  0.417-   1 2.42
   5  0.667  0.333  0.867-   2 2.42   2 2.42   2 2.42
   6  0.333  0.667  0.133-   1 2.42   1 2.42   1 2.42
 
  LATTYP: Found a hexagonal cell.
 ALAT       =     3.1922378540
 C/A-ratio  =     4.1908825730
  
  Lattice vectors:
  
 A1 = (   1.5961189270,  -2.7645590765,   0.0000000000)
 A2 = (   1.5961189270,   2.7645590765,   0.0000000000)
 A3 = (   0.0000000000,   0.0000000000,  13.3782939911)


Analysis of symmetry for initial positions (statically):
=====================================================================
 Subroutine PRICEL returns:
 Original cell was already a primitive cell.
 

 Routine SETGRP: Setting up the symmetry group for a 
 hexagonal supercell.


 Subroutine GETGRP returns: Found  1 space group operations
 (whereof  1 operations were pure point group operations)
 out of a pool of 24 trial point group operations.


The static configuration has the point symmetry C_1 .


Analysis of symmetry for dynamics (positions and initial velocities):
=====================================================================
 Subroutine PRICEL returns:
 Original cell was already a primitive cell.
 

 Routine SETGRP: Setting up the symmetry group for a 
 hexagonal supercell.


 Subroutine GETGRP returns: Found  1 space group operations
 (whereof  1 operations were pure point group operations)
 out of a pool of 24 trial point group operations.


The dynamic configuration has the point symmetry C_1 .


 Subroutine INISYM returns: Found  1 space group operations
 (whereof  1 operations are pure point group operations),
 and found     1 'primitive' translations


----------------------------------------------------------------------------------------

                                     Primitive cell                                     

  volume of cell :     118.0652

  direct lattice vectors                    reciprocal lattice vectors
     1.596118927 -2.764559076  0.000000000     0.313259865 -0.180860668  0.000000000
     1.596118927  2.764559076  0.000000000     0.313259865  0.180860668  0.000000000
     0.000000000  0.000000000 13.378293991     0.000000000  0.000000000  0.074747946

  length of vectors
     3.192237854  3.192237854 13.378293991     0.361721335  0.361721335  0.074747946

  position of ions in fractional coordinates (direct lattice)
     0.666666667  0.333333333  0.250000000
     0.333333333  0.666666667  0.750000000
     0.666666667  0.333333333  0.633082000
     0.989495371  0.436958567  0.417356142
     0.666666667  0.333333333  0.866918000
     0.333333333  0.666666667  0.133082000

  ion indices of the primitive-cell ions
   primitive index   ion index
                 1           1
                 2           2
                 3           3
                 4           4
                 5           5
                 6           6

----------------------------------------------------------------------------------------

 
 
 KPOINTS: K-Spacing Value to Generate K-Mesh: 0.15

Automatic generation of k-mesh.
 Grid dimensions read from file:
 generate k-points for:    2    2    1

 Generating k-lattice:

  Cartesian coordinates                     Fractional coordinates (reciprocal lattice)
     0.156629933 -0.090430334  0.000000000     0.500000000  0.000000000  0.000000000
     0.156629933  0.090430334  0.000000000     0.000000000  0.500000000  0.000000000
     0.000000000  0.000000000  0.074747946     0.000000000  0.000000000  1.000000000

  Length of vectors
     0.180860668  0.180860668  0.074747946

  Shift w.r.t. Gamma in fractional coordinates (k-lattice)
     0.500000000  0.500000000  0.000000000

 
 Subroutine IBZKPT returns following result:
 ===========================================
 
 Found      6 irreducible k-points:
 
 Following reciprocal coordinates:
            Coordinates               Weight
  0.250000  0.250000  0.000000      2.000000
 -0.250000  0.500000  0.000000      2.000000
  0.500000  0.250000  0.000000      2.000000
 -0.250000  0.250000  0.000000      2.000000
 -0.250000  0.000000  0.000000      2.000000
  0.000000 -0.250000  0.000000      2.000000
 
 Following cartesian coordinates:
            Coordinates               Weight
  0.156630  0.000000  0.000000      2.000000
  0.078315  0.135646  0.000000      2.000000
  0.234945 -0.045215  0.000000      2.000000
  0.000000  0.090430  0.000000      2.000000
 -0.078315  0.045215  0.000000      2.000000
 -0.078315 -0.045215  0.000000      2.000000
 


--------------------------------------------------------------------------------------------------------




 Dimension of arrays:
   k-points           NKPTS =      6   k-points in BZ     NKDIM =      6   number of bands    NBANDS=     32
   number of dos      NEDOS =    301   number of ions     NIONS =      6
   non local maximal  LDIM  =      6   non local SUM 2l+1 LMDIM =     18
   total plane-waves  NPLWV =  56448
   max r-space proj   IRMAX =      1   max aug-charges    IRDMAX=  21106
   dimension x,y,z NGX =    24 NGY =   24 NGZ =   98
   dimension x,y,z NGXF=    48 NGYF=   48 NGZF=  196
   support grid    NGXF=    48 NGYF=   48 NGZF=  196
   ions per type =               2   4
   NGX,Y,Z   is equivalent  to a cutoff of  12.50, 12.50, 12.18 a.u.
   NGXF,Y,Z  is equivalent  to a cutoff of  25.00, 25.00, 24.36 a.u.

 SYSTEM =  MoS2_SinglePoint_vdW_Coulomb           
 POSCAR =  Mo S                                    

 Startparameter for this run:
   NWRITE =      1    write-flag & timer
   PREC   = accura    normal or accurate (medium, high low for compatibility)
   ISTART =      0    job   : 0-new  1-cont  2-samecut
   ICHARG =      2    charge: 1-file 2-atom 10-const
   ISPIN  =      1    spin polarized calculation?
   LNONCOLLINEAR =      F non collinear calculations
   LSORBIT =      F    spin-orbit coupling
   INIWAV =      1    electr: 0-lowe 1-rand  2-diag
   LASPH  =      F    aspherical Exc in radial PAW
   METAGGA=      F    non-selfconsistent MetaGGA calc.

 Electronic Relaxation 1
   ENCUT  =  500.0 eV  36.75 Ry    6.06 a.u.   5.82  5.82 24.39*2*pi/ulx,y,z
   ENINI  =  500.0     initial cutoff
   ENAUG  =  446.0 eV  augmentation charge cutoff
   NELM   =    100;   NELMIN=  5; NELMDL= -5     # of ELM steps 
   EDIFF  = 0.1E-05   stopping-criterion for ELM
   LREAL  =      F    real-space projection
   NLSPLINE    = F    spline interpolate recip. space projectors
   LCOMPAT=      F    compatible to vasp.4.4
   GGA_COMPAT  = T    GGA compatible to vasp.4.4-vasp.4.6
   LMAXPAW     = -100 max onsite density
   LMAXMIX     =    2 max onsite mixed and CHGCAR
   VOSKOWN=      0    Vosko Wilk Nusair interpolation
   ROPT   =    0.00000   0.00000
 Ionic relaxation
   EDIFFG = 0.1E-04   stopping-criterion for IOM
   NSW    =      0    number of steps for IOM
   NBLOCK =      1;   KBLOCK =      1    inner block; outer block 
   IBRION =     -1    ionic relax: 0-MD 1-quasi-New 2-CG
   NFREE  =      0    steps in history (QN), initial steepest desc. (CG)
   ISIF   =      2    stress and relaxation
   IWAVPR =     10    prediction:  0-non 1-charg 2-wave 3-comb
   ISYM   =      2    0-nonsym 1-usesym 2-fastsym
   LCORR  =      T    Harris-Foulkes like correction to forces

   POTIM  = 0.5000    time-step for ionic-motion
   TEIN   =    0.0    initial temperature
   TEBEG  =    0.0;   TEEND  =   0.0 temperature during run
   SMASS  =  -3.00    Nose mass-parameter (am)
   estimated Nose-frequenzy (Omega)   =  0.10E-29 period in steps = 0.13E+47 mass=  -0.233E-27a.u.
   SCALEE = 1.0000    scale energy and forces
   NPACO  =    256;   APACO  = 16.0  distance and # of slots for P.C.
   PSTRESS=    0.0 pullay stress

  Mass of Ions in am
   POMASS =  95.94 32.07
  Ionic Valenz
   ZVAL   =  14.00  6.00
  Atomic Wigner-Seitz radii
   RWIGS  =  -1.00 -1.00
  virtual crystal weights 
   VCA    =   1.00  1.00
   NELECT =      52.0000    total number of electrons
   NUPDOWN=      -1.0000    fix difference up-down

 DOS related values:
   EMIN   =  10.00;   EMAX   =-10.00  energy-range for DOS
   EFERMI =   0.00
   ISMEAR =     0;   SIGMA  =   0.05  broadening in eV -4-tet -1-fermi 0-gaus

 Electronic relaxation 2 (details)
   IALGO  =     38    algorithm
   LDIAG  =      T    sub-space diagonalisation (order eigenvalues)
   LSUBROT=      F    optimize rotation matrix (better conditioning)
   TURBO    =      0    0=normal 1=particle mesh
   IRESTART =      0    0=no restart 2=restart with 2 vectors
   NREBOOT  =      0    no. of reboots
   NMIN     =      0    reboot dimension
   EREF     =   0.00    reference energy to select bands
   IMIX   =      4    mixing-type and parameters
     AMIX     =   0.40;   BMIX     =  1.00
     AMIX_MAG =   1.60;   BMIX_MAG =  1.00
     AMIN     =   0.10
     WC   =   100.;   INIMIX=   1;  MIXPRE=   1;  MAXMIX= -45

 Intra band minimization:
   WEIMIN = 0.0000     energy-eigenvalue tresh-hold
   EBREAK =  0.78E-08  absolut break condition
   DEPER  =   0.30     relativ break condition  

   TIME   =   0.40     timestep for ELM

  volume/ion in A,a.u.               =      19.68       132.79
  Fermi-wavevector in a.u.,A,eV,Ry     =   1.245571  2.353789 21.108736  1.551448
  Thomas-Fermi vector in A             =   2.379788
 
 Write flags
   LWAVE        =      T    write WAVECAR
   LDOWNSAMPLE  =      F    k-point downsampling of WAVECAR
   LCHARG       =      T    write CHGCAR
   LVTOT        =      F    write LOCPOT, total local potential
   LVHAR        =      F    write LOCPOT, Hartree potential only
   LELF         =      F    write electronic localiz. function (ELF)
   LORBIT       =      0    0 simple, 1 ext, 2 COOP (PROOUT), +10 PAW based schemes


 Dipole corrections
   LMONO  =      F    monopole corrections only (constant potential shift)
   LDIPOL =      F    correct potential (dipole corrections)
   IDIPOL =      0    1-x, 2-y, 3-z, 4-all directions 
   EPSILON=  1.0000000 bulk dielectric constant

 Exchange correlation treatment:
   GGA     =    PE    GGA type
   LEXCH   =     8    internal setting for exchange type
   VOSKOWN=      0    Vosko Wilk Nusair interpolation
   LHFCALC =     F    Hartree Fock is set to
   LHFONE  =     F    Hartree Fock one center treatment
   AEXX    =    0.0000 exact exchange contribution

 Linear response parameters
   LEPSILON=     F    determine dielectric tensor
   LRPA    =     F    only Hartree local field effects (RPA)
   LNABLA  =     F    use nabla operator in PAW spheres
   LVEL    =     F    velocity operator in full k-point grid
   LINTERFAST=   F  fast interpolation
   KINTER  =     0    interpolate to denser k-point grid
   CSHIFT  =0.1000    complex shift for real part using Kramers Kronig
   OMEGAMAX=  -1.0    maximum frequency
   DEG_THRESHOLD= 0.2000000E-02 threshold for treating states as degnerate
   RTIME   =   -0.100 relaxation time in fs
  (WPLASMAI=    0.000 imaginary part of plasma frequency in eV, 0.658/RTIME)
   DFIELD  = 0.0000000 0.0000000 0.0000000 field for delta impulse in time
 
 Orbital magnetization related:
   ORBITALMAG=     F  switch on orbital magnetization
   LCHIMAG   =     F  perturbation theory with respect to B field
   DQ        =  0.001000  dq finite difference perturbation B field
   LLRAUG    =     F  two centre corrections for induced B field



--------------------------------------------------------------------------------------------------------


 Static calculation
 charge density and potential will be updated during run
 non-spin polarized calculation
 Variant of blocked Davidson
 Davidson routine will perform the subspace rotation
 perform sub-space diagonalisation
    after iterative eigenvector-optimisation
 modified Broyden-mixing scheme, WC =      100.0
 initial mixing is a Kerker type mixing with AMIX =  0.4000 and BMIX =      1.0000
 Hartree-type preconditioning will be used
 using additional bands            6
 reciprocal scheme for non local part
 use partial core corrections
 calculate Harris-corrections to forces 
   (improved forces if not selfconsistent)
 use gradient corrections 
 use of overlap-Matrix (Vanderbilt PP)
 Gauss-broadening in eV      SIGMA  =   0.05


--------------------------------------------------------------------------------------------------------


  energy-cutoff  :      500.00
  volume of cell :      118.07
      direct lattice vectors                 reciprocal lattice vectors
     1.596118927 -2.764559076  0.000000000     0.313259865 -0.180860668  0.000000000
     1.596118927  2.764559076  0.000000000     0.313259865  0.180860668  0.000000000
     0.000000000  0.000000000 13.378293991     0.000000000  0.000000000  0.074747946

  length of vectors
     3.192237854  3.192237854 13.378293991     0.361721335  0.361721335  0.074747946


 
 k-points in units of 2pi/SCALE and weight: K-Spacing Value to Generate K-Mesh: 0.15
   0.15662993  0.00000000  0.00000000       0.167
   0.07831497  0.13564550  0.00000000       0.167
   0.23494490 -0.04521517  0.00000000       0.167
   0.00000000  0.09043033  0.00000000       0.167
  -0.07831497  0.04521517  0.00000000       0.167
  -0.07831497 -0.04521517  0.00000000       0.167
 
 k-points in reciprocal lattice and weights: K-Spacing Value to Generate K-Mesh: 0.15
   0.25000000  0.25000000  0.00000000       0.167
  -0.25000000  0.50000000  0.00000000       0.167
   0.50000000  0.25000000  0.00000000       0.167
  -0.25000000  0.25000000  0.00000000       0.167
  -0.25000000  0.00000000  0.00000000       0.167
   0.00000000 -0.25000000  0.00000000       0.167
 
 position of ions in fractional coordinates (direct lattice) 
   0.66666667  0.33333333  0.25000000
   0.33333333  0.66666667  0.75000000
   0.66666667  0.33333333  0.63308200
   0.98949537  0.43695857  0.41735614
   0.66666667  0.33333333  0.86691800
   0.33333333  0.66666667  0.13308200
 
 position of ions in cartesian coordinates  (Angst):
   1.59611893 -0.92151969  3.34457350
   1.59611893  0.92151969 10.03372049
   1.59611893 -0.92151969  8.46955712
   2.27679013 -1.52752064  5.58351316
   1.59611893 -0.92151969 11.59788387
   1.59611893  0.92151969  1.78041012
 


--------------------------------------------------------------------------------------------------------


 k-point   1 :   0.2500 0.2500 0.0000  plane waves:    3020
 k-point   2 :  -0.2500 0.5000 0.0000  plane waves:    3020
 k-point   3 :   0.5000 0.2500 0.0000  plane waves:    3020
 k-point   4 :  -0.2500 0.2500 0.0000  plane waves:    2992
 k-point   5 :  -0.2500 0.0000 0.0000  plane waves:    2992
 k-point   6 :   0.0000-0.2500 0.0000  plane waves:    2992

 maximum and minimum number of plane-waves per node :       767      745

 maximum number of plane-waves:      3020
 maximum index in each direction: 
   IXMAX=    6   IYMAX=    6   IZMAX=   24
   IXMIN=   -6   IYMIN=   -6   IZMIN=  -24


 parallel 3D FFT for wavefunctions:
    minimum data exchange during FFTs selected (reduces bandwidth)
 parallel 3D FFT for charge:
    minimum data exchange during FFTs selected (reduces bandwidth)


 total amount of memory used by VASP MPI-rank0    38677. kBytes
=======================================================================

   base      :      30000. kBytes
   nonl-proj :       1371. kBytes
   fftplans  :       2330. kBytes
   grid      :       3750. kBytes
   one-center:         31. kBytes
   wavefun   :       1195. kBytes
 
     INWAV:  cpu time    0.0001: real time    0.0006
 Broyden mixing: mesh for mixing (old mesh)
   NGX = 11   NGY = 11   NGZ = 49
  (NGX  = 48   NGY  = 48   NGZ  =196)
  gives a total of   5929 points

 initial charge density was supplied:
 charge density of overlapping atoms calculated
 number of electron      52.0000000 magnetization 
 keeping initial charge density in first step


--------------------------------------------------------------------------------------------------------


 Maximum index for augmentation-charges         2591 (set IRDMAX)


--------------------------------------------------------------------------------------------------------


 First call to EWALD:  gamma=   0.361
 Maximum number of real-space cells 4x 4x 1
 Maximum number of reciprocal cells 2x 2x 7

    FEWALD:  cpu time    0.0019: real time    0.0019


--------------------------------------- Iteration      1(   1)  ---------------------------------------


    POTLOK:  cpu time    0.0566: real time    0.0589
    SETDIJ:  cpu time    0.0056: real time    0.0064
     EDDAV:  cpu time    0.3953: real time    0.4235
       DOS:  cpu time    0.0007: real time    0.0007
    --------------------------------------------
      LOOP:  cpu time    0.4581: real time    0.4895

 eigenvalue-minimisations  :   432
 total energy-change (2. order) : 0.4194437E+03  (-0.2909930E+04)
 number of electron      52.0000000 magnetization 
 augmentation part       52.0000000 magnetization 

 Free energy of the ion-electron system (eV)
  ---------------------------------------------------
  alpha Z        PSCENC =       160.27286088
  Ewald energy   TEWEN  =     -3040.99122650
  -Hartree energ DENC   =     -1714.30945907
  -exchange      EXHF   =         0.00000000
  -V(xc)+E(xc)   XCENC  =       181.74123555
  PAW double counting   =      3865.57804258    -3815.84821480
  entropy T*S    EENTRO =        -0.00634202
  eigenvalues    EBANDS =       -48.83586513
  atomic energy  EATOM  =      4831.84262874
  Solvation  Ediel_sol  =         0.00000000
  ---------------------------------------------------
  free energy    TOTEN  =       419.44366023 eV

  energy without entropy =      419.45000225  energy(sigma->0) =      419.44683124


--------------------------------------------------------------------------------------------------------




--------------------------------------- Iteration      1(   2)  ---------------------------------------


     EDDAV:  cpu time    0.4044: real time    0.4081
       DOS:  cpu time    0.0004: real time    0.0004
    --------------------------------------------
      LOOP:  cpu time    0.4048: real time    0.4085

 eigenvalue-minimisations  :   456
 total energy-change (2. order) :-0.4402334E+03  (-0.4287260E+03)
 number of electron      52.0000000 magnetization 
 augmentation part       52.0000000 magnetization 

 Free energy of the ion-electron system (eV)
  ---------------------------------------------------
  alpha Z        PSCENC =       160.27286088
  Ewald energy   TEWEN  =     -3040.99122650
  -Hartree energ DENC   =     -1714.30945907
  -exchange      EXHF   =         0.00000000
  -V(xc)+E(xc)   XCENC  =       181.74123555
  PAW double counting   =      3865.57804258    -3815.84821480
  entropy T*S    EENTRO =        -0.00000001
  eigenvalues    EBANDS =      -489.07563921
  atomic energy  EATOM  =      4831.84262874
  Solvation  Ediel_sol  =         0.00000000
  ---------------------------------------------------
  free energy    TOTEN  =       -20.78977184 eV

  energy without entropy =      -20.78977183  energy(sigma->0) =      -20.78977183


--------------------------------------------------------------------------------------------------------




--------------------------------------- Iteration      1(   3)  ---------------------------------------


     EDDAV:  cpu time    0.4385: real time    0.4423
       DOS:  cpu time    0.0002: real time    0.0002
    --------------------------------------------
      LOOP:  cpu time    0.4388: real time    0.4425

 eigenvalue-minimisations  :   504
 total energy-change (2. order) :-0.2353317E+02  (-0.2322427E+02)
 number of electron      52.0000000 magnetization 
 augmentation part       52.0000000 magnetization 

 Free energy of the ion-electron system (eV)
  ---------------------------------------------------
  alpha Z        PSCENC =       160.27286088
  Ewald energy   TEWEN  =     -3040.99122650
  -Hartree energ DENC   =     -1714.30945907
  -exchange      EXHF   =         0.00000000
  -V(xc)+E(xc)   XCENC  =       181.74123555
  PAW double counting   =      3865.57804258    -3815.84821480
  entropy T*S    EENTRO =        -0.00000000
  eigenvalues    EBANDS =      -512.60881380
  atomic energy  EATOM  =      4831.84262874
  Solvation  Ediel_sol  =         0.00000000
  ---------------------------------------------------
  free energy    TOTEN  =       -44.32294642 eV

  energy without entropy =      -44.32294642  energy(sigma->0) =      -44.32294642


--------------------------------------------------------------------------------------------------------




--------------------------------------- Iteration      1(   4)  ---------------------------------------


     EDDAV:  cpu time    0.4125: real time    0.4144
       DOS:  cpu time    0.0002: real time    0.0002
    --------------------------------------------
      LOOP:  cpu time    0.4127: real time    0.4147

 eigenvalue-minimisations  :   464
 total energy-change (2. order) :-0.5646344E+00  (-0.5632949E+00)
 number of electron      52.0000000 magnetization 
 augmentation part       52.0000000 magnetization 

 Free energy of the ion-electron system (eV)
  ---------------------------------------------------
  alpha Z        PSCENC =       160.27286088
  Ewald energy   TEWEN  =     -3040.99122650
  -Hartree energ DENC   =     -1714.30945907
  -exchange      EXHF   =         0.00000000
  -V(xc)+E(xc)   XCENC  =       181.74123555
  PAW double counting   =      3865.57804258    -3815.84821480
  entropy T*S    EENTRO =        -0.00000000
  eigenvalues    EBANDS =      -513.17344818
  atomic energy  EATOM  =      4831.84262874
  Solvation  Ediel_sol  =         0.00000000
  ---------------------------------------------------
  free energy    TOTEN  =       -44.88758080 eV

  energy without entropy =      -44.88758080  energy(sigma->0) =      -44.88758080


--------------------------------------------------------------------------------------------------------




--------------------------------------- Iteration      1(   5)  ---------------------------------------


     EDDAV:  cpu time    0.4396: real time    0.4434
       DOS:  cpu time    0.0002: real time    0.0002
    CHARGE:  cpu time    0.0371: real time    0.0371
    MIXING:  cpu time    0.0014: real time    0.0014
    --------------------------------------------
      LOOP:  cpu time    0.4784: real time    0.4822

 eigenvalue-minimisations  :   512
 total energy-change (2. order) :-0.1543945E-01  (-0.1542928E-01)
 number of electron      51.9999991 magnetization 
 augmentation part        0.6332021 magnetization 

 Broyden mixing:
  rms(total) = 0.29411E+01    rms(broyden)= 0.29411E+01
  rms(prec ) = 0.30902E+01
  weight for this iteration     100.00

 Free energy of the ion-electron system (eV)
  ---------------------------------------------------
  alpha Z        PSCENC =       160.27286088
  Ewald energy   TEWEN  =     -3040.99122650
  -Hartree energ DENC   =     -1714.30945907
  -exchange      EXHF   =         0.00000000
  -V(xc)+E(xc)   XCENC  =       181.74123555
  PAW double counting   =      3865.57804258    -3815.84821480
  entropy T*S    EENTRO =        -0.00000000
  eigenvalues    EBANDS =      -513.18888763
  atomic energy  EATOM  =      4831.84262874
  Solvation  Ediel_sol  =         0.00000000
  ---------------------------------------------------
  free energy    TOTEN  =       -44.90302025 eV

  energy without entropy =      -44.90302025  energy(sigma->0) =      -44.90302025


--------------------------------------------------------------------------------------------------------




--------------------------------------- Iteration      1(   6)  ---------------------------------------


    POTLOK:  cpu time    0.0561: real time    0.0593
    SETDIJ:  cpu time    0.0054: real time    0.0054
     EDDAV:  cpu time    0.3976: real time    0.3978
       DOS:  cpu time    0.0003: real time    0.0002
    CHARGE:  cpu time    0.0363: real time    0.0363
    MIXING:  cpu time    0.0016: real time    0.0042
    --------------------------------------------
      LOOP:  cpu time    0.4973: real time    0.5032

 eigenvalue-minimisations  :   440
 total energy-change (2. order) : 0.1900092E-01  (-0.4085049E+01)
 number of electron      51.9999989 magnetization 
 augmentation part        2.3873615 magnetization 

 Broyden mixing:
  rms(total) = 0.15551E+01    rms(broyden)= 0.15551E+01
  rms(prec ) = 0.21337E+01
  weight for this iteration     100.00

 eigenvalues of (default mixing * dielectric matrix)
  average eigenvalue GAMMA=   0.9233
  0.9233

 Free energy of the ion-electron system (eV)
  ---------------------------------------------------
  alpha Z        PSCENC =       160.27286088
  Ewald energy   TEWEN  =     -3040.99122650
  -Hartree energ DENC   =     -1647.13558779
  -exchange      EXHF   =         0.00000000
  -V(xc)+E(xc)   XCENC  =       179.92575923
  PAW double counting   =      4429.20751946    -4386.56369519
  entropy T*S    EENTRO =        -0.00000000
  eigenvalues    EBANDS =      -571.44227816
  atomic energy  EATOM  =      4831.84262874
  Solvation  Ediel_sol  =         0.00000000
  ---------------------------------------------------
  free energy    TOTEN  =       -44.88401933 eV

  energy without entropy =      -44.88401933  energy(sigma->0) =      -44.88401933


--------------------------------------------------------------------------------------------------------




--------------------------------------- Iteration      1(   7)  ---------------------------------------


    POTLOK:  cpu time    0.0554: real time    0.0589
    SETDIJ:  cpu time    0.0053: real time    0.0053
     EDDAV:  cpu time    0.4222: real time    0.4223
       DOS:  cpu time    0.0003: real time    0.0003
    CHARGE:  cpu time    0.0370: real time    0.0371
    MIXING:  cpu time    0.0014: real time    0.0014
    --------------------------------------------
      LOOP:  cpu time    0.5217: real time    0.5253

 eigenvalue-minimisations  :   480
 total energy-change (2. order) : 0.8914162E+00  (-0.5565600E+01)
 number of electron      51.9999990 magnetization 
 augmentation part        1.0786665 magnetization 

 Broyden mixing:
  rms(total) = 0.10489E+01    rms(broyden)= 0.10489E+01
  rms(prec ) = 0.15151E+01
  weight for this iteration     100.00

 eigenvalues of (default mixing * dielectric matrix)
  average eigenvalue GAMMA=   0.9498
  1.4635  0.4360

 Free energy of the ion-electron system (eV)
  ---------------------------------------------------
  alpha Z        PSCENC =       160.27286088
  Ewald energy   TEWEN  =     -3040.99122650
  -Hartree energ DENC   =     -1697.78617300
  -exchange      EXHF   =         0.00000000
  -V(xc)+E(xc)   XCENC  =       180.80599090
  PAW double counting   =      4846.33118284    -4800.83238420
  entropy T*S    EENTRO =        -0.00000000
  eigenvalues    EBANDS =      -523.63548277
  atomic energy  EATOM  =      4831.84262874
  Solvation  Ediel_sol  =         0.00000000
  ---------------------------------------------------
  free energy    TOTEN  =       -43.99260312 eV

  energy without entropy =      -43.99260312  energy(sigma->0) =      -43.99260312


--------------------------------------------------------------------------------------------------------




--------------------------------------- Iteration      1(   8)  ---------------------------------------


    POTLOK:  cpu time    0.0552: real time    0.0585
    SETDIJ:  cpu time    0.0053: real time    0.0053
     EDDAV:  cpu time    0.3970: real time    0.3972
       DOS:  cpu time    0.0004: real time    0.0004
    CHARGE:  cpu time    0.0370: real time    0.0370
    MIXING:  cpu time    0.0014: real time    0.0014
    --------------------------------------------
      LOOP:  cpu time    0.4964: real time    0.4999

 eigenvalue-minimisations  :   440
 total energy-change (2. order) : 0.2173426E+01  (-0.8919312E+00)
 number of electron      51.9999990 magnetization 
 augmentation part        1.3629599 magnetization 

 Broyden mixing:
  rms(total) = 0.49648E+00    rms(broyden)= 0.49648E+00
  rms(prec ) = 0.54494E+00
  weight for this iteration     100.00

 eigenvalues of (default mixing * dielectric matrix)
  average eigenvalue GAMMA=   1.0247
  1.9901  0.6727  0.4112

 Free energy of the ion-electron system (eV)
  ---------------------------------------------------
  alpha Z        PSCENC =       160.27286088
  Ewald energy   TEWEN  =     -3040.99122650
  -Hartree energ DENC   =     -1683.45153914
  -exchange      EXHF   =         0.00000000
  -V(xc)+E(xc)   XCENC  =       180.49295962
  PAW double counting   =      5227.67382249    -5183.91706077
  entropy T*S    EENTRO =        -0.00000042
  eigenvalues    EBANDS =      -533.74162190
  atomic energy  EATOM  =      4831.84262874
  Solvation  Ediel_sol  =         0.00000000
  ---------------------------------------------------
  free energy    TOTEN  =       -41.81917700 eV

  energy without entropy =      -41.81917658  energy(sigma->0) =      -41.81917679


--------------------------------------------------------------------------------------------------------




--------------------------------------- Iteration      1(   9)  ---------------------------------------


    POTLOK:  cpu time    0.0553: real time    0.0586
    SETDIJ:  cpu time    0.0053: real time    0.0053
     EDDAV:  cpu time    0.4547: real time    0.4548
       DOS:  cpu time    0.0006: real time    0.0006
    CHARGE:  cpu time    0.0373: real time    0.0373
    MIXING:  cpu time    0.0015: real time    0.0015
    --------------------------------------------
      LOOP:  cpu time    0.5547: real time    0.5581

 eigenvalue-minimisations  :   520
 total energy-change (2. order) : 0.9951756E-01  (-0.1127736E+00)
 number of electron      51.9999990 magnetization 
 augmentation part        1.5719322 magnetization 

 Broyden mixing:
  rms(total) = 0.14886E+00    rms(broyden)= 0.14885E+00
  rms(prec ) = 0.16866E+00
  weight for this iteration     100.00

 eigenvalues of (default mixing * dielectric matrix)
  average eigenvalue GAMMA=   1.0484
  2.1652  1.0029  0.4488  0.5766

 Free energy of the ion-electron system (eV)
  ---------------------------------------------------
  alpha Z        PSCENC =       160.27286088
  Ewald energy   TEWEN  =     -3040.99122650
  -Hartree energ DENC   =     -1674.46875520
  -exchange      EXHF   =         0.00000000
  -V(xc)+E(xc)   XCENC  =       180.23129198
  PAW double counting   =      5485.22528653    -5442.66649355
  entropy T*S    EENTRO =        -0.00000518
  eigenvalues    EBANDS =      -541.16524714
  atomic energy  EATOM  =      4831.84262874
  Solvation  Ediel_sol  =         0.00000000
  ---------------------------------------------------
  free energy    TOTEN  =       -41.71965944 eV

  energy without entropy =      -41.71965426  energy(sigma->0) =      -41.71965685


--------------------------------------------------------------------------------------------------------




--------------------------------------- Iteration      1(  10)  ---------------------------------------


    POTLOK:  cpu time    0.0559: real time    0.0586
    SETDIJ:  cpu time    0.0053: real time    0.0053
     EDDAV:  cpu time    0.4467: real time    0.4469
       DOS:  cpu time    0.0006: real time    0.0006
    CHARGE:  cpu time    0.0370: real time    0.0370
    MIXING:  cpu time    0.0015: real time    0.0015
    --------------------------------------------
      LOOP:  cpu time    0.5470: real time    0.5498

 eigenvalue-minimisations  :   512
 total energy-change (2. order) : 0.1089109E-01  (-0.7476809E-02)
 number of electron      51.9999990 magnetization 
 augmentation part        1.5699828 magnetization 

 Broyden mixing:
  rms(total) = 0.78484E-01    rms(broyden)= 0.78484E-01
  rms(prec ) = 0.88152E-01
  weight for this iteration     100.00

 eigenvalues of (default mixing * dielectric matrix)
  average eigenvalue GAMMA=   1.0945
  1.8737  1.7272  0.4375  0.7992  0.6345

 Free energy of the ion-electron system (eV)
  ---------------------------------------------------
  alpha Z        PSCENC =       160.27286088
  Ewald energy   TEWEN  =     -3040.99122650
  -Hartree energ DENC   =     -1674.77575097
  -exchange      EXHF   =         0.00000000
  -V(xc)+E(xc)   XCENC  =       180.21978269
  PAW double counting   =      5543.76211367    -5501.32721288
  entropy T*S    EENTRO =        -0.00000860
  eigenvalues    EBANDS =      -540.71195538
  atomic energy  EATOM  =      4831.84262874
  Solvation  Ediel_sol  =         0.00000000
  ---------------------------------------------------
  free energy    TOTEN  =       -41.70876835 eV

  energy without entropy =      -41.70875975  energy(sigma->0) =      -41.70876405


--------------------------------------------------------------------------------------------------------




--------------------------------------- Iteration      1(  11)  ---------------------------------------


    POTLOK:  cpu time    0.0551: real time    0.0590
    SETDIJ:  cpu time    0.0053: real time    0.0053
     EDDAV:  cpu time    0.4275: real time    0.4276
       DOS:  cpu time    0.0006: real time    0.0006
    CHARGE:  cpu time    0.0368: real time    0.0368
    MIXING:  cpu time    0.0016: real time    0.0016
    --------------------------------------------
      LOOP:  cpu time    0.5269: real time    0.5308

 eigenvalue-minimisations  :   488
 total energy-change (2. order) : 0.2568752E-02  (-0.2888579E-02)
 number of electron      51.9999990 magnetization 
 augmentation part        1.5441407 magnetization 

 Broyden mixing:
  rms(total) = 0.32991E-01    rms(broyden)= 0.32991E-01
  rms(prec ) = 0.35902E-01
  weight for this iteration     100.00

 eigenvalues of (default mixing * dielectric matrix)
  average eigenvalue GAMMA=   1.1650
  2.1731  2.1731  0.4382  0.6403  0.7827  0.7827

 Free energy of the ion-electron system (eV)
  ---------------------------------------------------
  alpha Z        PSCENC =       160.27286088
  Ewald energy   TEWEN  =     -3040.99122650
  -Hartree energ DENC   =     -1675.71987612
  -exchange      EXHF   =         0.00000000
  -V(xc)+E(xc)   XCENC  =       180.24752994
  PAW double counting   =      5535.13765924    -5492.62085277
  entropy T*S    EENTRO =        -0.00001325
  eigenvalues    EBANDS =      -539.87490976
  atomic energy  EATOM  =      4831.84262874
  Solvation  Ediel_sol  =         0.00000000
  ---------------------------------------------------
  free energy    TOTEN  =       -41.70619960 eV

  energy without entropy =      -41.70618635  energy(sigma->0) =      -41.70619297


--------------------------------------------------------------------------------------------------------




--------------------------------------- Iteration      1(  12)  ---------------------------------------


    POTLOK:  cpu time    0.0552: real time    0.0582
    SETDIJ:  cpu time    0.0053: real time    0.0053
     EDDAV:  cpu time    0.4577: real time    0.4579
       DOS:  cpu time    0.0006: real time    0.0006
    CHARGE:  cpu time    0.0367: real time    0.0368
    MIXING:  cpu time    0.0016: real time    0.0016
    --------------------------------------------
      LOOP:  cpu time    0.5571: real time    0.5603

 eigenvalue-minimisations  :   528
 total energy-change (2. order) :-0.2559200E-03  (-0.5737265E-03)
 number of electron      51.9999990 magnetization 
 augmentation part        1.5517546 magnetization 

 Broyden mixing:
  rms(total) = 0.17868E-01    rms(broyden)= 0.17868E-01
  rms(prec ) = 0.21735E-01
  weight for this iteration     100.00

 eigenvalues of (default mixing * dielectric matrix)
  average eigenvalue GAMMA=   1.1896
  1.9885  1.9885  1.6237  0.4375  0.9115  0.6214  0.7559

 Free energy of the ion-electron system (eV)
  ---------------------------------------------------
  alpha Z        PSCENC =       160.27286088
  Ewald energy   TEWEN  =     -3040.99122650
  -Hartree energ DENC   =     -1675.67775866
  -exchange      EXHF   =         0.00000000
  -V(xc)+E(xc)   XCENC  =       180.25169288
  PAW double counting   =      5542.96608566    -5500.46883092
  entropy T*S    EENTRO =        -0.00001412
  eigenvalues    EBANDS =      -539.90189348
  atomic energy  EATOM  =      4831.84262874
  Solvation  Ediel_sol  =         0.00000000
  ---------------------------------------------------
  free energy    TOTEN  =       -41.70645552 eV

  energy without entropy =      -41.70644140  energy(sigma->0) =      -41.70644846


--------------------------------------------------------------------------------------------------------




--------------------------------------- Iteration      1(  13)  ---------------------------------------


    POTLOK:  cpu time    0.0552: real time    0.0582
    SETDIJ:  cpu time    0.0053: real time    0.0053
     EDDAV:  cpu time    0.4375: real time    0.4376
       DOS:  cpu time    0.0006: real time    0.0006
    CHARGE:  cpu time    0.0368: real time    0.0368
    MIXING:  cpu time    0.0016: real time    0.0016
    --------------------------------------------
      LOOP:  cpu time    0.5370: real time    0.5401

 eigenvalue-minimisations  :   504
 total energy-change (2. order) : 0.8456708E-05  (-0.4576817E-03)
 number of electron      51.9999990 magnetization 
 augmentation part        1.5444107 magnetization 

 Broyden mixing:
  rms(total) = 0.10958E-01    rms(broyden)= 0.10958E-01
  rms(prec ) = 0.16693E-01
  weight for this iteration     100.00

 eigenvalues of (default mixing * dielectric matrix)
  average eigenvalue GAMMA=   1.1642
  2.1761  2.1761  1.5902  1.0186  0.4371  0.7118  0.6016  0.6016

 Free energy of the ion-electron system (eV)
  ---------------------------------------------------
  alpha Z        PSCENC =       160.27286088
  Ewald energy   TEWEN  =     -3040.99122650
  -Hartree energ DENC   =     -1675.92986546
  -exchange      EXHF   =         0.00000000
  -V(xc)+E(xc)   XCENC  =       180.25955872
  PAW double counting   =      5541.36166178    -5498.84333357
  entropy T*S    EENTRO =        -0.00001317
  eigenvalues    EBANDS =      -539.67871848
  atomic energy  EATOM  =      4831.84262874
  Solvation  Ediel_sol  =         0.00000000
  ---------------------------------------------------
  free energy    TOTEN  =       -41.70644706 eV

  energy without entropy =      -41.70643389  energy(sigma->0) =      -41.70644048


--------------------------------------------------------------------------------------------------------




--------------------------------------- Iteration      1(  14)  ---------------------------------------


    POTLOK:  cpu time    0.0552: real time    0.0608
    SETDIJ:  cpu time    0.0053: real time    0.0053
     EDDAV:  cpu time    0.4216: real time    0.4218
       DOS:  cpu time    0.0006: real time    0.0006
    CHARGE:  cpu time    0.0368: real time    0.0368
    MIXING:  cpu time    0.0017: real time    0.0017
    --------------------------------------------
      LOOP:  cpu time    0.5211: real time    0.5269

 eigenvalue-minimisations  :   480
 total energy-change (2. order) : 0.1347240E-03  (-0.7810549E-04)
 number of electron      51.9999990 magnetization 
 augmentation part        1.5472545 magnetization 

 Broyden mixing:
  rms(total) = 0.47240E-02    rms(broyden)= 0.47239E-02
  rms(prec ) = 0.56668E-02
  weight for this iteration     100.00

 eigenvalues of (default mixing * dielectric matrix)
  average eigenvalue GAMMA=   1.1957
  2.2921  2.2921  1.4478  1.4478  0.4372  0.8020  0.6150  0.7137  0.7137

 Free energy of the ion-electron system (eV)
  ---------------------------------------------------
  alpha Z        PSCENC =       160.27286088
  Ewald energy   TEWEN  =     -3040.99122650
  -Hartree energ DENC   =     -1675.94604620
  -exchange      EXHF   =         0.00000000
  -V(xc)+E(xc)   XCENC  =       180.26143030
  PAW double counting   =      5542.03375438    -5499.51693935
  entropy T*S    EENTRO =        -0.00001348
  eigenvalues    EBANDS =      -539.66276109
  atomic energy  EATOM  =      4831.84262874
  Solvation  Ediel_sol  =         0.00000000
  ---------------------------------------------------
  free energy    TOTEN  =       -41.70631234 eV

  energy without entropy =      -41.70629886  energy(sigma->0) =      -41.70630560


--------------------------------------------------------------------------------------------------------




--------------------------------------- Iteration      1(  15)  ---------------------------------------


    POTLOK:  cpu time    0.0551: real time    0.0583
    SETDIJ:  cpu time    0.0053: real time    0.0053
     EDDAV:  cpu time    0.4521: real time    0.4524
       DOS:  cpu time    0.0006: real time    0.0006
    CHARGE:  cpu time    0.0368: real time    0.0368
    MIXING:  cpu time    0.0017: real time    0.0017
    --------------------------------------------
      LOOP:  cpu time    0.5516: real time    0.5550

 eigenvalue-minimisations  :   520
 total energy-change (2. order) :-0.5968369E-05  (-0.7708954E-05)
 number of electron      51.9999990 magnetization 
 augmentation part        1.5477166 magnetization 

 Broyden mixing:
  rms(total) = 0.15456E-02    rms(broyden)= 0.15455E-02
  rms(prec ) = 0.18628E-02
  weight for this iteration     100.00

 eigenvalues of (default mixing * dielectric matrix)
  average eigenvalue GAMMA=   1.2267
  2.5544  2.3324  1.4312  1.4312  1.2267  0.4371  0.8437  0.6267  0.6918  0.6918

 Free energy of the ion-electron system (eV)
  ---------------------------------------------------
  alpha Z        PSCENC =       160.27286088
  Ewald energy   TEWEN  =     -3040.99122650
  -Hartree energ DENC   =     -1675.96798753
  -exchange      EXHF   =         0.00000000
  -V(xc)+E(xc)   XCENC  =       180.26278791
  PAW double counting   =      5541.17500653    -5498.65518983
  entropy T*S    EENTRO =        -0.00001367
  eigenvalues    EBANDS =      -539.64518484
  atomic energy  EATOM  =      4831.84262874
  Solvation  Ediel_sol  =         0.00000000
  ---------------------------------------------------
  free energy    TOTEN  =       -41.70631831 eV

  energy without entropy =      -41.70630464  energy(sigma->0) =      -41.70631147


--------------------------------------------------------------------------------------------------------




--------------------------------------- Iteration      1(  16)  ---------------------------------------


    POTLOK:  cpu time    0.0552: real time    0.0593
    SETDIJ:  cpu time    0.0054: real time    0.0054
     EDDAV:  cpu time    0.4019: real time    0.4021
       DOS:  cpu time    0.0006: real time    0.0006
    CHARGE:  cpu time    0.0385: real time    0.0385
    MIXING:  cpu time    0.0020: real time    0.0020
    --------------------------------------------
      LOOP:  cpu time    0.5036: real time    0.5079

 eigenvalue-minimisations  :   448
 total energy-change (2. order) :-0.6480609E-05  (-0.2360871E-05)
 number of electron      51.9999990 magnetization 
 augmentation part        1.5486041 magnetization 

 Broyden mixing:
  rms(total) = 0.99559E-03    rms(broyden)= 0.99558E-03
  rms(prec ) = 0.11086E-02
  weight for this iteration     100.00

 eigenvalues of (default mixing * dielectric matrix)
  average eigenvalue GAMMA=   1.2348
  2.7618  2.2333  1.6388  1.6388  1.3703  0.4371  0.8314  0.6909  0.6909  0.6448
  0.6448

 Free energy of the ion-electron system (eV)
  ---------------------------------------------------
  alpha Z        PSCENC =       160.27286088
  Ewald energy   TEWEN  =     -3040.99122650
  -Hartree energ DENC   =     -1675.95923432
  -exchange      EXHF   =         0.00000000
  -V(xc)+E(xc)   XCENC  =       180.26336839
  PAW double counting   =      5541.15330341    -5498.63384955
  entropy T*S    EENTRO =        -0.00001367
  eigenvalues    EBANDS =      -539.65416217
  atomic energy  EATOM  =      4831.84262874
  Solvation  Ediel_sol  =         0.00000000
  ---------------------------------------------------
  free energy    TOTEN  =       -41.70632479 eV

  energy without entropy =      -41.70631112  energy(sigma->0) =      -41.70631795


--------------------------------------------------------------------------------------------------------




--------------------------------------- Iteration      1(  17)  ---------------------------------------


    POTLOK:  cpu time    0.0562: real time    0.0594
    SETDIJ:  cpu time    0.0054: real time    0.0054
     EDDAV:  cpu time    0.3353: real time    0.3355
       DOS:  cpu time    0.0005: real time    0.0005
    --------------------------------------------
      LOOP:  cpu time    0.3974: real time    0.4008

 eigenvalue-minimisations  :   336
 total energy-change (2. order) :-0.6064683E-06  (-0.1810374E-06)
 number of electron      51.9999990 magnetization 
 augmentation part        1.5486041 magnetization 

 Free energy of the ion-electron system (eV)
  ---------------------------------------------------
  alpha Z        PSCENC =       160.27286088
  Ewald energy   TEWEN  =     -3040.99122650
  -Hartree energ DENC   =     -1675.96898009
  -exchange      EXHF   =         0.00000000
  -V(xc)+E(xc)   XCENC  =       180.26372084
  PAW double counting   =      5541.20762489    -5498.68739652
  entropy T*S    EENTRO =        -0.00001367
  eigenvalues    EBANDS =      -539.64554396
  atomic energy  EATOM  =      4831.84262874
  Solvation  Ediel_sol  =         0.00000000
  ---------------------------------------------------
  free energy    TOTEN  =       -41.70632539 eV

  energy without entropy =      -41.70631172  energy(sigma->0) =      -41.70631856


--------------------------------------------------------------------------------------------------------




 average (electrostatic) potential at core
  the test charge radii are     1.0818  0.9698
  (the norm of the test charge is              1.0000)
       1 -75.8682       2 -76.0113       3 -85.7851       4 -85.4742       5 -85.7225
       6 -85.6774
 
 
 
 E-fermi :   6.3135     XC(G=0): -10.3265     alpha+bet :-12.2268

 Fermi energy:         6.3135281030

 k-point     1 :       0.2500    0.2500    0.0000
  band No.  band energies     occupation 
      1     -55.2210      2.00000
      2     -55.0513      2.00000
      3     -29.4588      2.00000
      4     -29.3735      2.00000
      5     -29.3161      2.00000
      6     -29.2995      2.00000
      7     -29.1950      2.00000
      8     -28.9969      2.00000
      9      -6.6981      2.00000
     10      -6.4595      2.00000
     11      -6.3896      2.00000
     12      -5.4087      2.00000
     13       0.4955      2.00000
     14       0.7066      2.00000
     15       0.9909      2.00000
     16       1.7291      2.00000
     17       1.9985      2.00000
     18       2.2249      2.00000
     19       2.5845      2.00000
     20       2.6818      2.00000
     21       2.8519      2.00000
     22       3.6257      2.00000
     23       3.8537      2.00000
     24       4.2473      2.00000
     25       5.1073      2.00000
     26       5.7023      2.00000
     27       6.4414      0.00030
     28       7.7666      0.00000
     29       8.0916      0.00000
     30       8.4431      0.00000
     31       8.6392      0.00000
     32       8.7838      0.00000

 k-point     2 :      -0.2500    0.5000    0.0000
  band No.  band energies     occupation 
      1     -55.2210      2.00000
      2     -55.0513      2.00000
      3     -29.4569      2.00000
      4     -29.3735      2.00000
      5     -29.3180      2.00000
      6     -29.2800      2.00000
      7     -29.1392      2.00000
      8     -29.0726      2.00000
      9      -6.7010      2.00000
     10      -6.4608      2.00000
     11      -6.3819      2.00000
     12      -5.4190      2.00000
     13       0.5001      2.00000
     14       0.7042      2.00000
     15       0.9280      2.00000
     16       1.7923      2.00000
     17       2.0133      2.00000
     18       2.2749      2.00000
     19       2.5500      2.00000
     20       2.7707      2.00000
     21       2.8921      2.00000
     22       3.5323      2.00000
     23       3.9948      2.00000
     24       4.1727      2.00000
     25       5.1097      2.00000
     26       5.4751      2.00000
     27       6.5737      0.00000
     28       7.7396      0.00000
     29       7.8920      0.00000
     30       8.4387      0.00000
     31       8.7155      0.00000
     32       8.7843      0.00000

 k-point     3 :       0.5000    0.2500    0.0000
  band No.  band energies     occupation 
      1     -55.2210      2.00000
      2     -55.0512      2.00000
      3     -29.4584      2.00000
      4     -29.3735      2.00000
      5     -29.3171      2.00000
      6     -29.3165      2.00000
      7     -29.2039      2.00000
      8     -28.9706      2.00000
      9      -6.6951      2.00000
     10      -6.4587      2.00000
     11      -6.3896      2.00000
     12      -5.4126      2.00000
     13       0.4907      2.00000
     14       0.7036      2.00000
     15       0.9832      2.00000
     16       1.7030      2.00000
     17       2.0137      2.00000
     18       2.2135      2.00000
     19       2.6050      2.00000
     20       2.6850      2.00000
     21       2.8529      2.00000
     22       3.6244      2.00000
     23       3.9080      2.00000
     24       4.1823      2.00000
     25       5.1122      2.00000
     26       5.6747      2.00000
     27       6.5214      0.00000
     28       7.7647      0.00000
     29       8.0592      0.00000
     30       8.4372      0.00000
     31       8.6336      0.00000
     32       8.7316      0.00000

 k-point     4 :      -0.2500    0.2500    0.0000
  band No.  band energies     occupation 
      1     -55.2389      2.00000
      2     -55.0679      2.00000
      3     -29.4094      2.00000
      4     -29.3465      2.00000
      5     -29.3003      2.00000
      6     -29.2082      2.00000
      7     -29.1076      2.00000
      8     -28.9122      2.00000
      9      -7.6955      2.00000
     10      -7.1379      2.00000
     11      -6.9220      2.00000
     12      -6.1936      2.00000
     13       0.5086      2.00000
     14       1.4316      2.00000
     15       1.6321      2.00000
     16       1.9640      2.00000
     17       2.2169      2.00000
     18       3.1055      2.00000
     19       3.2163      2.00000
     20       3.5985      2.00000
     21       3.8215      2.00000
     22       3.9107      2.00000
     23       4.4034      2.00000
     24       4.9016      2.00000
     25       5.1840      2.00000
     26       6.1847      1.99973
     27       6.6386      0.00000
     28       6.9832      0.00000
     29       7.8842      0.00000
     30       7.9429      0.00000
     31       8.4424      0.00000
     32       8.9068      0.00000

 k-point     5 :      -0.2500    0.0000    0.0000
  band No.  band energies     occupation 
      1     -55.2389      2.00000
      2     -55.0678      2.00000
      3     -29.4094      2.00000
      4     -29.3484      2.00000
      5     -29.3071      2.00000
      6     -29.2063      2.00000
      7     -29.1478      2.00000
      8     -28.8649      2.00000
      9      -7.6940      2.00000
     10      -7.1411      2.00000
     11      -6.9195      2.00000
     12      -6.1902      2.00000
     13       0.4998      2.00000
     14       1.4739      2.00000
     15       1.7171      2.00000
     16       1.9343      2.00000
     17       2.2300      2.00000
     18       3.0159      2.00000
     19       3.1135      2.00000
     20       3.6105      2.00000
     21       3.6939      2.00000
     22       3.8224      2.00000
     23       4.4289      2.00000
     24       4.9182      2.00000
     25       5.3734      2.00000
     26       6.0351      2.00000
     27       6.6767      0.00000
     28       7.2493      0.00000
     29       7.9094      0.00000
     30       7.9544      0.00000
     31       8.4180      0.00000
     32       8.8974      0.00000

 k-point     6 :       0.0000   -0.2500    0.0000
  band No.  band energies     occupation 
      1     -55.2389      2.00000
      2     -55.0680      2.00000
      3     -29.4094      2.00000
      4     -29.3469      2.00000
      5     -29.2966      2.00000
      6     -29.2078      2.00000
      7     -29.0666      2.00000
      8     -28.9567      2.00000
      9      -7.6970      2.00000
     10      -7.1427      2.00000
     11      -6.9247      2.00000
     12      -6.1840      2.00000
     13       0.5037      2.00000
     14       1.4146      2.00000
     15       1.6598      2.00000
     16       1.9586      2.00000
     17       2.2218      2.00000
     18       3.1038      2.00000
     19       3.2381      2.00000
     20       3.6050      2.00000
     21       3.8243      2.00000
     22       3.9497      2.00000
     23       4.4326      2.00000
     24       4.8967      2.00000
     25       5.1067      2.00000
     26       6.1653      1.99997
     27       6.6351      0.00000
     28       6.9726      0.00000
     29       7.8564      0.00000
     30       7.9425      0.00000
     31       8.4734      0.00000
     32       8.8335      0.00000


--------------------------------------------------------------------------------------------------------


 soft charge-density along one line, spin component           1
         0         1         2         3         4         5         6         7         8         9
 total charge-density along one line
 
 pseudopotential strength for first ion, spin component:           1
 -5.072  11.431  -0.003  -0.008   0.003   0.001  -0.002   0.000
 11.431   3.261   0.001  -0.002  -0.000   0.001   0.003  -0.002
 -0.003   0.001 -18.121   0.009   0.024   8.943  -0.010  -0.026
 -0.008  -0.002   0.009 -18.166  -0.006  -0.010   8.995   0.007
  0.003  -0.000   0.024  -0.006 -18.130  -0.026   0.007   8.952
  0.001   0.001   8.943  -0.010  -0.026   5.732   0.006   0.014
 -0.002   0.003  -0.010   8.995   0.007   0.006   5.703  -0.004
  0.000  -0.002  -0.026   0.007   8.952   0.014  -0.004   5.727
  0.028  -0.015   0.001   0.000  -0.001   0.000  -0.000  -0.000
  0.010  -0.006   0.001   0.000   0.000  -0.003  -0.000  -0.000
 -0.029   0.017   0.003  -0.004  -0.003  -0.001  -0.001   0.001
 -0.007   0.004   0.000  -0.002  -0.001  -0.000   0.001  -0.002
 -0.005   0.002   0.004  -0.001   0.002  -0.002   0.000   0.000
  0.029  -0.016   0.002   0.000  -0.002   0.000  -0.000  -0.000
  0.010  -0.006   0.001   0.001   0.000  -0.003  -0.000  -0.000
 -0.029   0.017   0.004  -0.004  -0.003  -0.001  -0.001   0.001
 -0.007   0.004   0.000  -0.002  -0.001  -0.000   0.001  -0.002
 -0.005   0.002   0.004  -0.001   0.002  -0.002   0.000   0.000
 total augmentation occupancy for first ion, spin component:           1
  1.995  -0.042   0.000   0.001  -0.000   0.001   0.001  -0.001  -0.047  -0.016   0.048   0.010   0.008   0.043   0.015  -0.044
 -0.042   1.162   0.006   0.015  -0.007  -0.018  -0.053   0.020   0.126   0.154  -0.403  -0.186   0.006  -0.119  -0.194   0.406
  0.000   0.006   1.997  -0.000  -0.000  -0.041   0.002   0.001   0.003   0.009   0.003  -0.002  -0.003  -0.004   0.003  -0.000
  0.001   0.015  -0.000   1.997   0.000   0.002  -0.047  -0.003   0.003   0.012   0.003  -0.011  -0.003   0.002  -0.002  -0.005
 -0.000  -0.007  -0.000   0.000   1.997   0.001  -0.003  -0.042  -0.004  -0.003  -0.005   0.010   0.004   0.005   0.003   0.002
  0.001  -0.018  -0.041   0.002   0.001   0.075  -0.010  -0.003  -0.017   0.188   0.030   0.036   0.133   0.017  -0.214  -0.040
  0.001  -0.053   0.002  -0.047  -0.003  -0.010   0.101   0.011   0.015   0.047  -0.084  -0.057   0.011  -0.033  -0.077   0.084
 -0.001   0.020   0.001  -0.003  -0.042  -0.003   0.011   0.076   0.160   0.037  -0.035   0.186  -0.017  -0.146  -0.035   0.046
 -0.047   0.126   0.003   0.003  -0.004  -0.017   0.015   0.160   1.706  -0.014  -0.225   0.653   0.054  -1.623  -0.088   0.169
 -0.016   0.154   0.009   0.012  -0.003   0.188   0.047   0.037  -0.014   2.527  -0.379  -0.047   0.600  -0.089  -2.916   0.481
  0.048  -0.403   0.003   0.003  -0.005   0.030  -0.084  -0.035  -0.225  -0.379   1.777   0.446   0.008   0.168   0.482  -2.031
  0.010  -0.186  -0.002  -0.011   0.010   0.036  -0.057   0.186   0.653  -0.047   0.446   2.434  -0.078  -0.806   0.236  -0.546
  0.008   0.006  -0.003  -0.003   0.004   0.133   0.011  -0.017   0.054   0.600   0.008  -0.078   1.754  -0.052  -0.933  -0.017
  0.043  -0.119  -0.004   0.002   0.005   0.017  -0.033  -0.146  -1.623  -0.089   0.168  -0.806  -0.052   2.415   0.153  -0.172
  0.015  -0.194   0.003  -0.002   0.003  -0.214  -0.077  -0.035  -0.088  -2.916   0.482   0.236  -0.933   0.153   3.990  -0.584
 -0.044   0.406  -0.000  -0.005   0.002  -0.040   0.084   0.046   0.169   0.481  -2.031  -0.546  -0.017  -0.172  -0.584   3.059
 -0.009   0.225   0.003  -0.000   0.002  -0.035   0.093  -0.210  -0.808   0.236  -0.545  -2.915  -0.029   1.005  -0.347   0.660
 -0.007   0.012   0.003  -0.001  -0.004  -0.123   0.003   0.015  -0.052  -0.930  -0.018  -0.031  -1.620   0.041   1.224   0.027


------------------------ aborting loop because EDIFF is reached ----------------------------------------


    CHARGE:  cpu time    0.0395: real time    0.0395
    FORLOC:  cpu time    0.0046: real time    0.0047
    FORNL :  cpu time    0.0730: real time    0.0731
    STRESS:  cpu time    0.1507: real time    0.1508
    FORCOR:  cpu time    0.0591: real time    0.0591
    FORHAR:  cpu time    0.0146: real time    0.0146
    MIXING:  cpu time    0.0018: real time    0.0018
    OFIELD:  cpu time    0.0000: real time    0.0000

 ---------------------------------------------------------------------------------------------

         DFTD3 V3.0 Rev 1        
 IVDW         = 12
 DF pbe       
 parameters
 VDW_S6       =    1.0000
 VDW_S8       =    0.7875
 VDW_A1       =    0.4289
 VDW_A2       =    4.4407
 k1-k3        =   16.0000    1.3333   -4.0000
 VDW_RADIUS   =   50.2022 A
 VDW_CNRADIUS =   21.1671 A
 Edisp (eV)   -2.31189

 E6    (eV) :    -1.3768
 E8    (eV) :    -0.9351
 % E8        : 40.45
    FORVDW:  cpu time    0.0379: real time    0.0486

  FORCE on cell =-STRESS in cart. coord.  units (eV):
  Direction    XX          YY          ZZ          XY          YZ          ZX
  --------------------------------------------------------------------------------------
  Alpha Z   160.27286   160.27286   160.27286
  Ewald    -306.03275  -307.79519 -2427.16614   -17.93007   -23.39933    26.73057
  Hartree  1161.94129  1161.37780  -647.30151    -6.13548    -8.51339    10.12245
  E(xc)    -218.05952  -218.09877  -218.15921    -0.04695    -0.02291     0.02222
  Local   -1861.97706 -1863.16343  2069.75752    18.19705    32.17318   -38.80095
  n-local   235.72052   236.40824   245.14216     0.64978    -1.95544     2.46145
  augment    -1.27583    -1.32427    -4.39635     0.34381     0.64685    -0.75356
  Kinetic   826.67580   830.86487   814.10299     6.61729     0.87928     0.67218
  Fock        0.00000     0.00000     0.00000     0.00000     0.00000     0.00000
  vdW        -2.36865    -2.36993    -2.29465    -0.00284     0.01432    -0.01717
  -------------------------------------------------------------------------------------
  Total      -5.10335    -3.82783   -10.04233     1.69260    -0.17743     0.43718
  in kB     -69.25385   -51.94473  -136.27716    22.96900    -2.40784     5.93271
  external pressure =      -85.83 kB  Pullay stress =        0.00 kB


 VOLUME and BASIS-vectors are now :
 -----------------------------------------------------------------------------
  energy-cutoff  :      500.00
  volume of cell :      118.07
      direct lattice vectors                 reciprocal lattice vectors
     1.596118927 -2.764559076  0.000000000     0.313259865 -0.180860668  0.000000000
     1.596118927  2.764559076  0.000000000     0.313259865  0.180860668  0.000000000
     0.000000000  0.000000000 13.378293991     0.000000000  0.000000000  0.074747946

  length of vectors
     3.192237854  3.192237854 13.378293991     0.361721335  0.361721335  0.074747946


 FORCES acting on ions
    electron-ion (+dipol)            ewald-force                    non-local-force                 convergence-correction
 -----------------------------------------------------------------------------------------------
   0.150E+02 -.132E+02 -.178E+02   -.138E+02 0.120E+02 0.161E+02   -.138E+01 0.114E+01 0.266E+01   0.254E-03 -.175E-03 -.189E-01
   -.123E+00 0.551E-01 -.867E+02   0.110E+00 -.402E-01 0.869E+02   0.126E-01 -.383E-02 -.146E+00   0.598E-04 -.430E-04 0.119E-01
   0.125E+01 -.112E+01 0.377E+03   -.136E+01 0.118E+01 -.381E+03   0.442E-01 -.113E-01 0.478E+01   -.464E-04 0.332E-04 0.173E-02
   -.142E+02 0.126E+02 -.200E+03   0.149E+02 -.131E+02 0.202E+03   -.325E+00 0.391E+00 -.395E+01   0.259E-03 -.247E-03 0.373E-02
   -.383E-01 0.205E-01 -.452E+03   -.116E-02 0.101E-02 0.456E+03   0.170E-01 -.973E-02 -.510E+01   0.115E-04 -.126E-04 0.778E-02
   -.106E+00 -.148E+00 0.377E+03   0.205E+00 -.750E-01 -.380E+03   -.172E+00 0.377E+00 0.475E+01   0.253E-04 -.284E-04 -.146E-01
 -----------------------------------------------------------------------------------------------
   0.180E+01 -.188E+01 -.299E+01   -.296E-13 0.848E-14 0.000E+00   -.180E+01 0.188E+01 0.299E+01   0.564E-03 -.473E-03 -.836E-02
 
 
 POSITION                                       TOTAL-FORCE (eV/Angst)
 -----------------------------------------------------------------------------------
      1.59612     -0.92152      3.34457        -0.175593     -0.093356      0.983793
      1.59612      0.92152     10.03372        -0.000092      0.010934     -0.002411
      1.59612     -0.92152      8.46956        -0.069675      0.049725      0.489883
      2.27679     -1.52752      5.58351         0.339931     -0.133161     -2.595493
      1.59612     -0.92152     11.59788        -0.022449      0.011727     -0.328203
      1.59612      0.92152      1.78041        -0.072121      0.154130      1.452431
 -----------------------------------------------------------------------------------
    total drift:                               -0.000111      0.000128     -0.000041


--------------------------------------------------------------------------------------------------------



  FREE ENERGIE OF THE ION-ELECTRON SYSTEM (eV)
  ---------------------------------------------------
  free  energy   TOTEN  =       -44.01821589 eV

  energy  without entropy=      -44.01820222  energy(sigma->0) =      -44.01820906
 


--------------------------------------------------------------------------------------------------------


    POTLOK:  cpu time    0.0605: real time    0.0606


--------------------------------------------------------------------------------------------------------


 stress matrix after NEB project (eV)
     -5.10335      1.69260      0.43718
      1.69260     -3.82783     -0.17743
      0.43718     -0.17743    -10.04233
  FORCES: max atom, RMS     2.621044    1.314761
  FORCE total and by dimension    3.220493    2.595493
  Stress total and by dimension   12.154002   10.042326
 writing wavefunctions
     LOOP+:  cpu time    9.7202: real time    9.8378
    4ORBIT:  cpu time    0.0000: real time    0.0000

 total amount of memory used by VASP MPI-rank0    38677. kBytes
=======================================================================

   base      :      30000. kBytes
   nonl-proj :       1371. kBytes
   fftplans  :       2330. kBytes
   grid      :       3750. kBytes
   one-center:         31. kBytes
   wavefun   :       1195. kBytes
 
  
  
 General timing and accounting informations for this job:
 ========================================================
  
                  Total CPU time used (sec):       11.377
                            User time (sec):       10.501
                          System time (sec):        0.876
                         Elapsed time (sec):       12.169
  
                   Maximum memory used (kb):      134352.
                   Average memory used (kb):          N/A
  
                          Minor page faults:        27688
                          Major page faults:           87
                 Voluntary context switches:         1202
