 vasp.6.2.0 18Jan21 (build Jul 31 2023 14:19:35) complex                        
  
 executed on             LinuxIFC date 2025.09.17  11:55:43
 running on    8 total cores
 distrk:  each k-point on    8 cores,    1 groups
 distr:  one band on NCORE=   4 cores,    2 groups


--------------------------------------------------------------------------------------------------------


 INCAR:
   SYSTEM = MoS2_SinglePoint_vdW_Coulomb
   PREC = Accurate
   ENCUT = 500
   GGA = PE
   ALGO = Normal
   NELM = 100
   NELMIN = 5
   EDIFF = 1E-6
   ISMEAR = 0
   SIGMA = 0.05
   IBRION = -1
   NSW = 0
   IVDW = 12
   LREAL = .FALSE.
   LCHARG = .TRUE.
   LWAVE = .TRUE.
   NWRITE = 1
   NCORE = 4

 POTCAR:    PAW_PBE Mo_sv 02Feb2006               
 POTCAR:    PAW_PBE S 06Sep2000                   
 POTCAR:    PAW_PBE Mo_sv 02Feb2006               
  local pseudopotential read in
  partial core-charges read in
  partial kinetic energy density read in
  atomic valenz-charges read in
  non local Contribution for L=           0  read in
    real space projection operators read in
  non local Contribution for L=           0  read in
    real space projection operators read in
  non local Contribution for L=           1  read in
    real space projection operators read in
  non local Contribution for L=           1  read in
    real space projection operators read in
  non local Contribution for L=           2  read in
    real space projection operators read in
  non local Contribution for L=           2  read in
    real space projection operators read in
    PAW grid and wavefunctions read in
 
   number of l-projection  operators is LMAX  =           6
   number of lm-projection operators is LMMAX =          18
 
 POTCAR:    PAW_PBE S 06Sep2000                   
  local pseudopotential read in
  partial core-charges read in
  partial kinetic energy density read in
  atomic valenz-charges read in
  non local Contribution for L=           0  read in
    real space projection operators read in
  non local Contribution for L=           0  read in
    real space projection operators read in
  non local Contribution for L=           1  read in
    real space projection operators read in
  non local Contribution for L=           1  read in
    real space projection operators read in
    PAW grid and wavefunctions read in
 
   number of l-projection  operators is LMAX  =           4
   number of lm-projection operators is LMMAX =           8
 
  PAW_PBE Mo_sv 02Feb2006               :
 energy of atom  1       EATOM=-1862.2866
 kinetic energy error for atom=    0.0074 (will be added to EATOM!!)
  PAW_PBE S 06Sep2000                   :
 energy of atom  2       EATOM= -276.8230
 kinetic energy error for atom=    0.0020 (will be added to EATOM!!)
 
 
 POSCAR: Mo S
  positions in direct lattice
  No initial velocities read in
 exchange correlation table for  LEXCH =        8
   RHO(1)=    0.500       N(1)  =     2000
   RHO(2)=  100.500       N(2)  =     4000

 VTST: version 4.0, (05/15/20)

 CHAIN: initializing optimizer
 
 OPT: Using VASP Dynamics algorithm
 CHAIN: Read ICHAIN            0
 
 POSCAR: Mo S
  positions in direct lattice
  No initial velocities read in
 


--------------------------------------------------------------------------------------------------------


 ion  position               nearest neighbor table
   1  0.667  0.333  0.250-   4 2.42   6 2.42   4 2.42   6 2.42   4 2.42   6 2.42   3 2.76
   2  0.333  0.667  0.750-   5 2.42   5 2.42   5 2.42
   3  0.472  0.528  0.440-   4 1.24   4 2.74   4 2.74   1 2.76
   4  0.333  0.667  0.367-   3 1.24   1 2.42   1 2.42   1 2.42   3 2.74   3 2.74
   5  0.667  0.333  0.867-   2 2.42   2 2.42   2 2.42
   6  0.333  0.667  0.133-   1 2.42   1 2.42   1 2.42
 
 -----------------------------------------------------------------------------
|                                                                             |
|           W    W    AA    RRRRR   N    N  II  N    N   GGGG   !!!           |
|           W    W   A  A   R    R  NN   N  II  NN   N  G    G  !!!           |
|           W    W  A    A  R    R  N N  N  II  N N  N  G       !!!           |
|           W WW W  AAAAAA  RRRRR   N  N N  II  N  N N  G  GGG   !            |
|           WW  WW  A    A  R   R   N   NN  II  N   NN  G    G                |
|           W    W  A    A  R    R  N    N  II  N    N   GGGG   !!!           |
|                                                                             |
|     The distance between some ions is very small. Please check the          |
|     nearest-neighbor list in the OUTCAR file.                               |
|     I HOPE YOU KNOW WHAT YOU ARE DOING!                                     |
|                                                                             |
 -----------------------------------------------------------------------------

  LATTYP: Found a hexagonal cell.
 ALAT       =     3.1922378540
 C/A-ratio  =     4.1908825730
  
  Lattice vectors:
  
 A1 = (   1.5961189270,  -2.7645590765,   0.0000000000)
 A2 = (   1.5961189270,   2.7645590765,   0.0000000000)
 A3 = (   0.0000000000,   0.0000000000,  13.3782939911)


Analysis of symmetry for initial positions (statically):
=====================================================================
 Subroutine PRICEL returns:
 Original cell was already a primitive cell.
 

 Routine SETGRP: Setting up the symmetry group for a 
 hexagonal supercell.


 Subroutine GETGRP returns: Found  2 space group operations
 (whereof  2 operations were pure point group operations)
 out of a pool of 24 trial point group operations.


The static configuration has the point symmetry C_1h.


Analysis of symmetry for dynamics (positions and initial velocities):
=====================================================================
 Subroutine PRICEL returns:
 Original cell was already a primitive cell.
 

 Routine SETGRP: Setting up the symmetry group for a 
 hexagonal supercell.


 Subroutine GETGRP returns: Found  2 space group operations
 (whereof  2 operations were pure point group operations)
 out of a pool of 24 trial point group operations.


The dynamic configuration has the point symmetry C_1h.


 Subroutine INISYM returns: Found  2 space group operations
 (whereof  2 operations are pure point group operations),
 and found     1 'primitive' translations


----------------------------------------------------------------------------------------

                                     Primitive cell                                     

  volume of cell :     118.0652

  direct lattice vectors                    reciprocal lattice vectors
     1.596118927 -2.764559076  0.000000000     0.313259865 -0.180860668  0.000000000
     1.596118927  2.764559076  0.000000000     0.313259865  0.180860668  0.000000000
     0.000000000  0.000000000 13.378293991     0.000000000  0.000000000  0.074747946

  length of vectors
     3.192237854  3.192237854 13.378293991     0.361721335  0.361721335  0.074747946

  position of ions in fractional coordinates (direct lattice)
     0.666666667  0.333333333  0.250000000
     0.333333333  0.666666667  0.750000000
     0.471975039  0.528024961  0.439680309
     0.333333333  0.666666667  0.366918000
     0.666666667  0.333333333  0.866918000
     0.333333333  0.666666667  0.133082000

  ion indices of the primitive-cell ions
   primitive index   ion index
                 1           1
                 2           2
                 3           3
                 4           4
                 5           5
                 6           6

----------------------------------------------------------------------------------------

 
 
 KPOINTS: K-Spacing Value to Generate K-Mesh: 0.15

Automatic generation of k-mesh.
 Grid dimensions read from file:
 generate k-points for:    2    2    1

 Generating k-lattice:

  Cartesian coordinates                     Fractional coordinates (reciprocal lattice)
     0.156629933 -0.090430334  0.000000000     0.500000000  0.000000000  0.000000000
     0.156629933  0.090430334  0.000000000     0.000000000  0.500000000  0.000000000
     0.000000000  0.000000000  0.074747946     0.000000000  0.000000000  1.000000000

  Length of vectors
     0.180860668  0.180860668  0.074747946

  Shift w.r.t. Gamma in fractional coordinates (k-lattice)
     0.500000000  0.500000000  0.000000000

 
 Subroutine IBZKPT returns following result:
 ===========================================
 
 Found      4 irreducible k-points:
 
 Following reciprocal coordinates:
            Coordinates               Weight
  0.250000  0.250000  0.000000      2.000000
 -0.250000  0.500000  0.000000      4.000000
 -0.250000  0.250000  0.000000      2.000000
 -0.250000  0.000000  0.000000      4.000000
 
 Following cartesian coordinates:
            Coordinates               Weight
  0.156630  0.000000  0.000000      2.000000
  0.078315  0.135646  0.000000      4.000000
  0.000000  0.090430  0.000000      2.000000
 -0.078315  0.045215  0.000000      4.000000
 


--------------------------------------------------------------------------------------------------------




 Dimension of arrays:
   k-points           NKPTS =      4   k-points in BZ     NKDIM =      4   number of bands    NBANDS=     32
   number of dos      NEDOS =    301   number of ions     NIONS =      6
   non local maximal  LDIM  =      6   non local SUM 2l+1 LMDIM =     18
   total plane-waves  NPLWV =  56448
   max r-space proj   IRMAX =      1   max aug-charges    IRDMAX=  21106
   dimension x,y,z NGX =    24 NGY =   24 NGZ =   98
   dimension x,y,z NGXF=    48 NGYF=   48 NGZF=  196
   support grid    NGXF=    48 NGYF=   48 NGZF=  196
   ions per type =               2   4
   NGX,Y,Z   is equivalent  to a cutoff of  12.50, 12.50, 12.18 a.u.
   NGXF,Y,Z  is equivalent  to a cutoff of  25.00, 25.00, 24.36 a.u.

 SYSTEM =  MoS2_SinglePoint_vdW_Coulomb           
 POSCAR =  Mo S                                    

 Startparameter for this run:
   NWRITE =      1    write-flag & timer
   PREC   = accura    normal or accurate (medium, high low for compatibility)
   ISTART =      0    job   : 0-new  1-cont  2-samecut
   ICHARG =      2    charge: 1-file 2-atom 10-const
   ISPIN  =      1    spin polarized calculation?
   LNONCOLLINEAR =      F non collinear calculations
   LSORBIT =      F    spin-orbit coupling
   INIWAV =      1    electr: 0-lowe 1-rand  2-diag
   LASPH  =      F    aspherical Exc in radial PAW
   METAGGA=      F    non-selfconsistent MetaGGA calc.

 Electronic Relaxation 1
   ENCUT  =  500.0 eV  36.75 Ry    6.06 a.u.   5.82  5.82 24.39*2*pi/ulx,y,z
   ENINI  =  500.0     initial cutoff
   ENAUG  =  446.0 eV  augmentation charge cutoff
   NELM   =    100;   NELMIN=  5; NELMDL= -5     # of ELM steps 
   EDIFF  = 0.1E-05   stopping-criterion for ELM
   LREAL  =      F    real-space projection
   NLSPLINE    = F    spline interpolate recip. space projectors
   LCOMPAT=      F    compatible to vasp.4.4
   GGA_COMPAT  = T    GGA compatible to vasp.4.4-vasp.4.6
   LMAXPAW     = -100 max onsite density
   LMAXMIX     =    2 max onsite mixed and CHGCAR
   VOSKOWN=      0    Vosko Wilk Nusair interpolation
   ROPT   =    0.00000   0.00000
 Ionic relaxation
   EDIFFG = 0.1E-04   stopping-criterion for IOM
   NSW    =      0    number of steps for IOM
   NBLOCK =      1;   KBLOCK =      1    inner block; outer block 
   IBRION =     -1    ionic relax: 0-MD 1-quasi-New 2-CG
   NFREE  =      0    steps in history (QN), initial steepest desc. (CG)
   ISIF   =      2    stress and relaxation
   IWAVPR =     10    prediction:  0-non 1-charg 2-wave 3-comb
   ISYM   =      2    0-nonsym 1-usesym 2-fastsym
   LCORR  =      T    Harris-Foulkes like correction to forces

   POTIM  = 0.5000    time-step for ionic-motion
   TEIN   =    0.0    initial temperature
   TEBEG  =    0.0;   TEEND  =   0.0 temperature during run
   SMASS  =  -3.00    Nose mass-parameter (am)
   estimated Nose-frequenzy (Omega)   =  0.10E-29 period in steps = 0.13E+47 mass=  -0.233E-27a.u.
   SCALEE = 1.0000    scale energy and forces
   NPACO  =    256;   APACO  = 16.0  distance and # of slots for P.C.
   PSTRESS=    0.0 pullay stress

  Mass of Ions in am
   POMASS =  95.94 32.07
  Ionic Valenz
   ZVAL   =  14.00  6.00
  Atomic Wigner-Seitz radii
   RWIGS  =  -1.00 -1.00
  virtual crystal weights 
   VCA    =   1.00  1.00
   NELECT =      52.0000    total number of electrons
   NUPDOWN=      -1.0000    fix difference up-down

 DOS related values:
   EMIN   =  10.00;   EMAX   =-10.00  energy-range for DOS
   EFERMI =   0.00
   ISMEAR =     0;   SIGMA  =   0.05  broadening in eV -4-tet -1-fermi 0-gaus

 Electronic relaxation 2 (details)
   IALGO  =     38    algorithm
   LDIAG  =      T    sub-space diagonalisation (order eigenvalues)
   LSUBROT=      F    optimize rotation matrix (better conditioning)
   TURBO    =      0    0=normal 1=particle mesh
   IRESTART =      0    0=no restart 2=restart with 2 vectors
   NREBOOT  =      0    no. of reboots
   NMIN     =      0    reboot dimension
   EREF     =   0.00    reference energy to select bands
   IMIX   =      4    mixing-type and parameters
     AMIX     =   0.40;   BMIX     =  1.00
     AMIX_MAG =   1.60;   BMIX_MAG =  1.00
     AMIN     =   0.10
     WC   =   100.;   INIMIX=   1;  MIXPRE=   1;  MAXMIX= -45

 Intra band minimization:
   WEIMIN = 0.0000     energy-eigenvalue tresh-hold
   EBREAK =  0.78E-08  absolut break condition
   DEPER  =   0.30     relativ break condition  

   TIME   =   0.40     timestep for ELM

  volume/ion in A,a.u.               =      19.68       132.79
  Fermi-wavevector in a.u.,A,eV,Ry     =   1.245571  2.353789 21.108736  1.551448
  Thomas-Fermi vector in A             =   2.379788
 
 Write flags
   LWAVE        =      T    write WAVECAR
   LDOWNSAMPLE  =      F    k-point downsampling of WAVECAR
   LCHARG       =      T    write CHGCAR
   LVTOT        =      F    write LOCPOT, total local potential
   LVHAR        =      F    write LOCPOT, Hartree potential only
   LELF         =      F    write electronic localiz. function (ELF)
   LORBIT       =      0    0 simple, 1 ext, 2 COOP (PROOUT), +10 PAW based schemes


 Dipole corrections
   LMONO  =      F    monopole corrections only (constant potential shift)
   LDIPOL =      F    correct potential (dipole corrections)
   IDIPOL =      0    1-x, 2-y, 3-z, 4-all directions 
   EPSILON=  1.0000000 bulk dielectric constant

 Exchange correlation treatment:
   GGA     =    PE    GGA type
   LEXCH   =     8    internal setting for exchange type
   VOSKOWN=      0    Vosko Wilk Nusair interpolation
   LHFCALC =     F    Hartree Fock is set to
   LHFONE  =     F    Hartree Fock one center treatment
   AEXX    =    0.0000 exact exchange contribution

 Linear response parameters
   LEPSILON=     F    determine dielectric tensor
   LRPA    =     F    only Hartree local field effects (RPA)
   LNABLA  =     F    use nabla operator in PAW spheres
   LVEL    =     F    velocity operator in full k-point grid
   LINTERFAST=   F  fast interpolation
   KINTER  =     0    interpolate to denser k-point grid
   CSHIFT  =0.1000    complex shift for real part using Kramers Kronig
   OMEGAMAX=  -1.0    maximum frequency
   DEG_THRESHOLD= 0.2000000E-02 threshold for treating states as degnerate
   RTIME   =   -0.100 relaxation time in fs
  (WPLASMAI=    0.000 imaginary part of plasma frequency in eV, 0.658/RTIME)
   DFIELD  = 0.0000000 0.0000000 0.0000000 field for delta impulse in time
 
 Orbital magnetization related:
   ORBITALMAG=     F  switch on orbital magnetization
   LCHIMAG   =     F  perturbation theory with respect to B field
   DQ        =  0.001000  dq finite difference perturbation B field
   LLRAUG    =     F  two centre corrections for induced B field



--------------------------------------------------------------------------------------------------------


 Static calculation
 charge density and potential will be updated during run
 non-spin polarized calculation
 Variant of blocked Davidson
 Davidson routine will perform the subspace rotation
 perform sub-space diagonalisation
    after iterative eigenvector-optimisation
 modified Broyden-mixing scheme, WC =      100.0
 initial mixing is a Kerker type mixing with AMIX =  0.4000 and BMIX =      1.0000
 Hartree-type preconditioning will be used
 using additional bands            6
 reciprocal scheme for non local part
 use partial core corrections
 calculate Harris-corrections to forces 
   (improved forces if not selfconsistent)
 use gradient corrections 
 use of overlap-Matrix (Vanderbilt PP)
 Gauss-broadening in eV      SIGMA  =   0.05


--------------------------------------------------------------------------------------------------------


  energy-cutoff  :      500.00
  volume of cell :      118.07
      direct lattice vectors                 reciprocal lattice vectors
     1.596118927 -2.764559076  0.000000000     0.313259865 -0.180860668  0.000000000
     1.596118927  2.764559076  0.000000000     0.313259865  0.180860668  0.000000000
     0.000000000  0.000000000 13.378293991     0.000000000  0.000000000  0.074747946

  length of vectors
     3.192237854  3.192237854 13.378293991     0.361721335  0.361721335  0.074747946


 
 k-points in units of 2pi/SCALE and weight: K-Spacing Value to Generate K-Mesh: 0.15
   0.15662993  0.00000000  0.00000000       0.167
   0.07831497  0.13564550  0.00000000       0.333
   0.00000000  0.09043033  0.00000000       0.167
  -0.07831497  0.04521517  0.00000000       0.333
 
 k-points in reciprocal lattice and weights: K-Spacing Value to Generate K-Mesh: 0.15
   0.25000000  0.25000000  0.00000000       0.167
  -0.25000000  0.50000000  0.00000000       0.333
  -0.25000000  0.25000000  0.00000000       0.167
  -0.25000000  0.00000000  0.00000000       0.333
 
 position of ions in fractional coordinates (direct lattice) 
   0.66666667  0.33333333  0.25000000
   0.33333333  0.66666667  0.75000000
   0.47197504  0.52802496  0.43968031
   0.33333333  0.66666667  0.36691800
   0.66666667  0.33333333  0.86691800
   0.33333333  0.66666667  0.13308200
 
 position of ions in cartesian coordinates  (Angst):
   1.59611893 -0.92151969  3.34457350
   1.59611893  0.92151969 10.03372049
   1.59611893  0.15495332  5.88217244
   1.59611893  0.92151969  4.90873687
   1.59611893 -0.92151969 11.59788387
   1.59611893  0.92151969  1.78041012
 


--------------------------------------------------------------------------------------------------------


 k-point   1 :   0.2500 0.2500 0.0000  plane waves:    3020
 k-point   2 :  -0.2500 0.5000 0.0000  plane waves:    3020
 k-point   3 :  -0.2500 0.2500 0.0000  plane waves:    2992
 k-point   4 :  -0.2500 0.0000 0.0000  plane waves:    2992

 maximum and minimum number of plane-waves per node :       764      745

 maximum number of plane-waves:      3020
 maximum index in each direction: 
   IXMAX=    6   IYMAX=    5   IZMAX=   24
   IXMIN=   -6   IYMIN=   -6   IZMIN=  -24


 parallel 3D FFT for wavefunctions:
    minimum data exchange during FFTs selected (reduces bandwidth)
 parallel 3D FFT for charge:
    minimum data exchange during FFTs selected (reduces bandwidth)


 total amount of memory used by VASP MPI-rank0    37866. kBytes
=======================================================================

   base      :      30000. kBytes
   nonl-proj :        950. kBytes
   fftplans  :       2329. kBytes
   grid      :       3750. kBytes
   one-center:         31. kBytes
   wavefun   :        806. kBytes
 
     INWAV:  cpu time    0.0001: real time    0.0006
 Broyden mixing: mesh for mixing (old mesh)
   NGX = 11   NGY = 11   NGZ = 49
  (NGX  = 48   NGY  = 48   NGZ  =196)
  gives a total of   5929 points

 initial charge density was supplied:
 charge density of overlapping atoms calculated
 number of electron      52.0000000 magnetization 
 keeping initial charge density in first step


--------------------------------------------------------------------------------------------------------


 Maximum index for augmentation-charges         2591 (set IRDMAX)


--------------------------------------------------------------------------------------------------------


 First call to EWALD:  gamma=   0.361
 Maximum number of real-space cells 4x 4x 1
 Maximum number of reciprocal cells 2x 2x 7

    FEWALD:  cpu time    0.0019: real time    0.0019


--------------------------------------- Iteration      1(   1)  ---------------------------------------


    POTLOK:  cpu time    0.0562: real time    0.0585
    SETDIJ:  cpu time    0.0056: real time    0.0059
     EDDAV:  cpu time    0.2693: real time    0.2964
       DOS:  cpu time    0.0005: real time    0.0005
    --------------------------------------------
      LOOP:  cpu time    0.3316: real time    0.3613

 eigenvalue-minimisations  :   288
 total energy-change (2. order) : 0.4761624E+03  (-0.2917914E+04)
 number of electron      52.0000000 magnetization 
 augmentation part       52.0000000 magnetization 

 Free energy of the ion-electron system (eV)
  ---------------------------------------------------
  alpha Z        PSCENC =       160.27286088
  Ewald energy   TEWEN  =     -2612.89942793
  -Hartree energ DENC   =     -2071.78454370
  -exchange      EXHF   =         0.00000000
  -V(xc)+E(xc)   XCENC  =       184.63391728
  PAW double counting   =      3865.57804258    -3815.84821480
  entropy T*S    EENTRO =        -0.00055009
  eigenvalues    EBANDS =       -65.63228371
  atomic energy  EATOM  =      4831.84262874
  Solvation  Ediel_sol  =         0.00000000
  ---------------------------------------------------
  free energy    TOTEN  =       476.16242925 eV

  energy without entropy =      476.16297934  energy(sigma->0) =      476.16270429


--------------------------------------------------------------------------------------------------------




--------------------------------------- Iteration      1(   2)  ---------------------------------------


     EDDAV:  cpu time    0.2709: real time    0.2748
       DOS:  cpu time    0.0005: real time    0.0005
    --------------------------------------------
      LOOP:  cpu time    0.2714: real time    0.2754

 eigenvalue-minimisations  :   304
 total energy-change (2. order) :-0.4659128E+03  (-0.4538418E+03)
 number of electron      52.0000000 magnetization 
 augmentation part       52.0000000 magnetization 

 Free energy of the ion-electron system (eV)
  ---------------------------------------------------
  alpha Z        PSCENC =       160.27286088
  Ewald energy   TEWEN  =     -2612.89942793
  -Hartree energ DENC   =     -2071.78454370
  -exchange      EXHF   =         0.00000000
  -V(xc)+E(xc)   XCENC  =       184.63391728
  PAW double counting   =      3865.57804258    -3815.84821480
  entropy T*S    EENTRO =        -0.01382779
  eigenvalues    EBANDS =      -531.53179179
  atomic energy  EATOM  =      4831.84262874
  Solvation  Ediel_sol  =         0.00000000
  ---------------------------------------------------
  free energy    TOTEN  =        10.24964347 eV

  energy without entropy =       10.26347126  energy(sigma->0) =       10.25655736


--------------------------------------------------------------------------------------------------------




--------------------------------------- Iteration      1(   3)  ---------------------------------------


     EDDAV:  cpu time    0.2955: real time    0.2998
       DOS:  cpu time    0.0002: real time    0.0002
    --------------------------------------------
      LOOP:  cpu time    0.2957: real time    0.3000

 eigenvalue-minimisations  :   344
 total energy-change (2. order) :-0.3001853E+02  (-0.2945677E+02)
 number of electron      52.0000000 magnetization 
 augmentation part       52.0000000 magnetization 

 Free energy of the ion-electron system (eV)
  ---------------------------------------------------
  alpha Z        PSCENC =       160.27286088
  Ewald energy   TEWEN  =     -2612.89942793
  -Hartree energ DENC   =     -2071.78454370
  -exchange      EXHF   =         0.00000000
  -V(xc)+E(xc)   XCENC  =       184.63391728
  PAW double counting   =      3865.57804258    -3815.84821480
  entropy T*S    EENTRO =        -0.00000000
  eigenvalues    EBANDS =      -561.56415327
  atomic energy  EATOM  =      4831.84262874
  Solvation  Ediel_sol  =         0.00000000
  ---------------------------------------------------
  free energy    TOTEN  =       -19.76889023 eV

  energy without entropy =      -19.76889023  energy(sigma->0) =      -19.76889023


--------------------------------------------------------------------------------------------------------




--------------------------------------- Iteration      1(   4)  ---------------------------------------


     EDDAV:  cpu time    0.2850: real time    0.2892
       DOS:  cpu time    0.0002: real time    0.0002
    --------------------------------------------
      LOOP:  cpu time    0.2852: real time    0.2894

 eigenvalue-minimisations  :   328
 total energy-change (2. order) :-0.8296590E+00  (-0.8259718E+00)
 number of electron      52.0000000 magnetization 
 augmentation part       52.0000000 magnetization 

 Free energy of the ion-electron system (eV)
  ---------------------------------------------------
  alpha Z        PSCENC =       160.27286088
  Ewald energy   TEWEN  =     -2612.89942793
  -Hartree energ DENC   =     -2071.78454370
  -exchange      EXHF   =         0.00000000
  -V(xc)+E(xc)   XCENC  =       184.63391728
  PAW double counting   =      3865.57804258    -3815.84821480
  entropy T*S    EENTRO =        -0.00000000
  eigenvalues    EBANDS =      -562.39381230
  atomic energy  EATOM  =      4831.84262874
  Solvation  Ediel_sol  =         0.00000000
  ---------------------------------------------------
  free energy    TOTEN  =       -20.59854925 eV

  energy without entropy =      -20.59854925  energy(sigma->0) =      -20.59854925


--------------------------------------------------------------------------------------------------------




--------------------------------------- Iteration      1(   5)  ---------------------------------------


     EDDAV:  cpu time    0.3058: real time    0.3100
       DOS:  cpu time    0.0002: real time    0.0002
    CHARGE:  cpu time    0.0328: real time    0.0328
    MIXING:  cpu time    0.0014: real time    0.0014
    --------------------------------------------
      LOOP:  cpu time    0.3402: real time    0.3444

 eigenvalue-minimisations  :   352
 total energy-change (2. order) :-0.2519879E-01  (-0.2519332E-01)
 number of electron      51.9999990 magnetization 
 augmentation part        0.6310818 magnetization 

 Broyden mixing:
  rms(total) = 0.53961E+01    rms(broyden)= 0.53961E+01
  rms(prec ) = 0.55011E+01
  weight for this iteration     100.00

 Free energy of the ion-electron system (eV)
  ---------------------------------------------------
  alpha Z        PSCENC =       160.27286088
  Ewald energy   TEWEN  =     -2612.89942793
  -Hartree energ DENC   =     -2071.78454370
  -exchange      EXHF   =         0.00000000
  -V(xc)+E(xc)   XCENC  =       184.63391728
  PAW double counting   =      3865.57804258    -3815.84821480
  entropy T*S    EENTRO =        -0.00000000
  eigenvalues    EBANDS =      -562.41901108
  atomic energy  EATOM  =      4831.84262874
  Solvation  Ediel_sol  =         0.00000000
  ---------------------------------------------------
  free energy    TOTEN  =       -20.62374803 eV

  energy without entropy =      -20.62374803  energy(sigma->0) =      -20.62374803


--------------------------------------------------------------------------------------------------------




--------------------------------------- Iteration      1(   6)  ---------------------------------------


    POTLOK:  cpu time    0.0577: real time    0.0613
    SETDIJ:  cpu time    0.0054: real time    0.0054
     EDDAV:  cpu time    0.2631: real time    0.2631
       DOS:  cpu time    0.0006: real time    0.0006
    CHARGE:  cpu time    0.0319: real time    0.0319
    MIXING:  cpu time    0.0015: real time    0.0015
    --------------------------------------------
      LOOP:  cpu time    0.3601: real time    0.3637

 eigenvalue-minimisations  :   296
 total energy-change (2. order) : 0.5789992E+01  (-0.2818501E+01)
 number of electron      51.9999988 magnetization 
 augmentation part        1.8074836 magnetization 

 Broyden mixing:
  rms(total) = 0.31126E+01    rms(broyden)= 0.31126E+01
  rms(prec ) = 0.31847E+01
  weight for this iteration     100.00

 eigenvalues of (default mixing * dielectric matrix)
  average eigenvalue GAMMA=   1.7149
  1.7149

 Free energy of the ion-electron system (eV)
  ---------------------------------------------------
  alpha Z        PSCENC =       160.27286088
  Ewald energy   TEWEN  =     -2612.89942793
  -Hartree energ DENC   =     -2046.51471501
  -exchange      EXHF   =         0.00000000
  -V(xc)+E(xc)   XCENC  =       184.04710740
  PAW double counting   =      5436.26508775    -5392.72865121
  entropy T*S    EENTRO =        -0.01375788
  eigenvalues    EBANDS =      -575.10488901
  atomic energy  EATOM  =      4831.84262874
  Solvation  Ediel_sol  =         0.00000000
  ---------------------------------------------------
  free energy    TOTEN  =       -14.83375628 eV

  energy without entropy =      -14.81999840  energy(sigma->0) =      -14.82687734


--------------------------------------------------------------------------------------------------------




--------------------------------------- Iteration      1(   7)  ---------------------------------------


    POTLOK:  cpu time    0.0553: real time    0.0591
    SETDIJ:  cpu time    0.0054: real time    0.0054
     EDDAV:  cpu time    0.2798: real time    0.2800
       DOS:  cpu time    0.0005: real time    0.0005
    CHARGE:  cpu time    0.0328: real time    0.0328
    MIXING:  cpu time    0.0014: real time    0.0014
    --------------------------------------------
      LOOP:  cpu time    0.3751: real time    0.3791

 eigenvalue-minimisations  :   320
 total energy-change (2. order) :-0.1819408E+01  (-0.4509869E+01)
 number of electron      51.9999990 magnetization 
 augmentation part        0.6440831 magnetization 

 Broyden mixing:
  rms(total) = 0.18210E+01    rms(broyden)= 0.18210E+01
  rms(prec ) = 0.21952E+01
  weight for this iteration     100.00

 eigenvalues of (default mixing * dielectric matrix)
  average eigenvalue GAMMA=   1.5183
  2.4128  0.6237

 Free energy of the ion-electron system (eV)
  ---------------------------------------------------
  alpha Z        PSCENC =       160.27286088
  Ewald energy   TEWEN  =     -2612.89942793
  -Hartree energ DENC   =     -2106.23635853
  -exchange      EXHF   =         0.00000000
  -V(xc)+E(xc)   XCENC  =       185.80896616
  PAW double counting   =      8220.26895451    -8174.24949941
  entropy T*S    EENTRO =        -0.01276367
  eigenvalues    EBANDS =      -521.44852541
  atomic energy  EATOM  =      4831.84262874
  Solvation  Ediel_sol  =         0.00000000
  ---------------------------------------------------
  free energy    TOTEN  =       -16.65316467 eV

  energy without entropy =      -16.64040099  energy(sigma->0) =      -16.64678283


--------------------------------------------------------------------------------------------------------




--------------------------------------- Iteration      1(   8)  ---------------------------------------


    POTLOK:  cpu time    0.0551: real time    0.0587
    SETDIJ:  cpu time    0.0053: real time    0.0053
     EDDAV:  cpu time    0.2820: real time    0.2825
       DOS:  cpu time    0.0005: real time    0.0005
    CHARGE:  cpu time    0.0319: real time    0.0319
    MIXING:  cpu time    0.0014: real time    0.0014
    --------------------------------------------
      LOOP:  cpu time    0.3761: real time    0.3804

 eigenvalue-minimisations  :   320
 total energy-change (2. order) : 0.1428016E+01  (-0.2573819E+01)
 number of electron      51.9999989 magnetization 
 augmentation part        1.4052231 magnetization 

 Broyden mixing:
  rms(total) = 0.88993E+00    rms(broyden)= 0.88991E+00
  rms(prec ) = 0.20564E+01
  weight for this iteration     100.00

 eigenvalues of (default mixing * dielectric matrix)
  average eigenvalue GAMMA=   1.1852
  2.4091  0.6891  0.4575

 Free energy of the ion-electron system (eV)
  ---------------------------------------------------
  alpha Z        PSCENC =       160.27286088
  Ewald energy   TEWEN  =     -2612.89942793
  -Hartree energ DENC   =     -2077.31770737
  -exchange      EXHF   =         0.00000000
  -V(xc)+E(xc)   XCENC  =       185.10153909
  PAW double counting   =     10163.36298650   -10121.09795998
  entropy T*S    EENTRO =        -0.00016866
  eigenvalues    EBANDS =      -544.48990014
  atomic energy  EATOM  =      4831.84262874
  Solvation  Ediel_sol  =         0.00000000
  ---------------------------------------------------
  free energy    TOTEN  =       -15.22514887 eV

  energy without entropy =      -15.22498021  energy(sigma->0) =      -15.22506454


--------------------------------------------------------------------------------------------------------




--------------------------------------- Iteration      1(   9)  ---------------------------------------


    POTLOK:  cpu time    0.0551: real time    0.0591
    SETDIJ:  cpu time    0.0054: real time    0.0054
     EDDAV:  cpu time    0.2894: real time    0.2894
       DOS:  cpu time    0.0005: real time    0.0005
    CHARGE:  cpu time    0.0315: real time    0.0315
    MIXING:  cpu time    0.0015: real time    0.0015
    --------------------------------------------
      LOOP:  cpu time    0.3833: real time    0.3874

 eigenvalue-minimisations  :   336
 total energy-change (2. order) : 0.1079631E+01  (-0.3024928E+01)
 number of electron      51.9999989 magnetization 
 augmentation part        1.3798501 magnetization 

 Broyden mixing:
  rms(total) = 0.43273E+00    rms(broyden)= 0.43270E+00
  rms(prec ) = 0.71086E+00
  weight for this iteration     100.00

 eigenvalues of (default mixing * dielectric matrix)
  average eigenvalue GAMMA=   1.0520
  2.4099  0.9956  0.5816  0.2210

 Free energy of the ion-electron system (eV)
  ---------------------------------------------------
  alpha Z        PSCENC =       160.27286088
  Ewald energy   TEWEN  =     -2612.89942793
  -Hartree energ DENC   =     -2065.18196081
  -exchange      EXHF   =         0.00000000
  -V(xc)+E(xc)   XCENC  =       185.02008914
  PAW double counting   =     10419.18077054   -10377.28944987
  entropy T*S    EENTRO =        -0.01339969
  eigenvalues    EBANDS =      -555.07762916
  atomic energy  EATOM  =      4831.84262874
  Solvation  Ediel_sol  =         0.00000000
  ---------------------------------------------------
  free energy    TOTEN  =       -14.14551816 eV

  energy without entropy =      -14.13211847  energy(sigma->0) =      -14.13881831


--------------------------------------------------------------------------------------------------------




--------------------------------------- Iteration      1(  10)  ---------------------------------------


    POTLOK:  cpu time    0.0551: real time    0.0590
    SETDIJ:  cpu time    0.0053: real time    0.0053
     EDDAV:  cpu time    0.2837: real time    0.2839
       DOS:  cpu time    0.0003: real time    0.0003
    CHARGE:  cpu time    0.0315: real time    0.0317
    MIXING:  cpu time    0.0015: real time    0.0015
    --------------------------------------------
      LOOP:  cpu time    0.3775: real time    0.3817

 eigenvalue-minimisations  :   328
 total energy-change (2. order) : 0.2847296E+00  (-0.1475717E+00)
 number of electron      51.9999989 magnetization 
 augmentation part        1.3447848 magnetization 

 Broyden mixing:
  rms(total) = 0.20864E+00    rms(broyden)= 0.20863E+00
  rms(prec ) = 0.23710E+00
  weight for this iteration     100.00

 eigenvalues of (default mixing * dielectric matrix)
  average eigenvalue GAMMA=   0.9772
  2.2642  1.1410  0.6188  0.6188  0.2430

 Free energy of the ion-electron system (eV)
  ---------------------------------------------------
  alpha Z        PSCENC =       160.27286088
  Ewald energy   TEWEN  =     -2612.89942793
  -Hartree energ DENC   =     -2065.94208190
  -exchange      EXHF   =         0.00000000
  -V(xc)+E(xc)   XCENC  =       184.97076002
  PAW double counting   =     10574.87921905   -10532.96717207
  entropy T*S    EENTRO =        -0.00000000
  eigenvalues    EBANDS =      -554.01757540
  atomic energy  EATOM  =      4831.84262874
  Solvation  Ediel_sol  =         0.00000000
  ---------------------------------------------------
  free energy    TOTEN  =       -13.86078861 eV

  energy without entropy =      -13.86078861  energy(sigma->0) =      -13.86078861


--------------------------------------------------------------------------------------------------------




--------------------------------------- Iteration      1(  11)  ---------------------------------------


    POTLOK:  cpu time    0.0552: real time    0.0592
    SETDIJ:  cpu time    0.0053: real time    0.0053
     EDDAV:  cpu time    0.2826: real time    0.2826
       DOS:  cpu time    0.0002: real time    0.0002
    CHARGE:  cpu time    0.0314: real time    0.0314
    MIXING:  cpu time    0.0015: real time    0.0015
    --------------------------------------------
      LOOP:  cpu time    0.3763: real time    0.3802

 eigenvalue-minimisations  :   320
 total energy-change (2. order) : 0.1517010E-01  (-0.1211069E-01)
 number of electron      51.9999989 magnetization 
 augmentation part        1.3650187 magnetization 

 Broyden mixing:
  rms(total) = 0.12519E+00    rms(broyden)= 0.12519E+00
  rms(prec ) = 0.15539E+00
  weight for this iteration     100.00

 eigenvalues of (default mixing * dielectric matrix)
  average eigenvalue GAMMA=   1.0351
  2.1729  1.2547  0.9830  0.9830  0.5777  0.2391

 Free energy of the ion-electron system (eV)
  ---------------------------------------------------
  alpha Z        PSCENC =       160.27286088
  Ewald energy   TEWEN  =     -2612.89942793
  -Hartree energ DENC   =     -2064.99731373
  -exchange      EXHF   =         0.00000000
  -V(xc)+E(xc)   XCENC  =       184.91867826
  PAW double counting   =     10443.77719154   -10401.93467747
  entropy T*S    EENTRO =        -0.00000000
  eigenvalues    EBANDS =      -554.82555881
  atomic energy  EATOM  =      4831.84262874
  Solvation  Ediel_sol  =         0.00000000
  ---------------------------------------------------
  free energy    TOTEN  =       -13.84561851 eV

  energy without entropy =      -13.84561851  energy(sigma->0) =      -13.84561851


--------------------------------------------------------------------------------------------------------




--------------------------------------- Iteration      1(  12)  ---------------------------------------


    POTLOK:  cpu time    0.0559: real time    0.0595
    SETDIJ:  cpu time    0.0058: real time    0.0058
     EDDAV:  cpu time    0.2899: real time    0.2900
       DOS:  cpu time    0.0002: real time    0.0002
    CHARGE:  cpu time    0.0317: real time    0.0317
    MIXING:  cpu time    0.0016: real time    0.0016
    --------------------------------------------
      LOOP:  cpu time    0.3852: real time    0.3888

 eigenvalue-minimisations  :   328
 total energy-change (2. order) : 0.8989101E-02  (-0.2184814E-02)
 number of electron      51.9999989 magnetization 
 augmentation part        1.3539286 magnetization 

 Broyden mixing:
  rms(total) = 0.72549E-01    rms(broyden)= 0.72549E-01
  rms(prec ) = 0.97748E-01
  weight for this iteration     100.00

 eigenvalues of (default mixing * dielectric matrix)
  average eigenvalue GAMMA=   1.1735
  2.4141  2.1351  1.0758  1.0758  0.7096  0.5642  0.2398

 Free energy of the ion-electron system (eV)
  ---------------------------------------------------
  alpha Z        PSCENC =       160.27286088
  Ewald energy   TEWEN  =     -2612.89942793
  -Hartree energ DENC   =     -2066.36122171
  -exchange      EXHF   =         0.00000000
  -V(xc)+E(xc)   XCENC  =       184.95331750
  PAW double counting   =     10402.24449337   -10360.40528419
  entropy T*S    EENTRO =        -0.00000000
  eigenvalues    EBANDS =      -553.48399607
  atomic energy  EATOM  =      4831.84262874
  Solvation  Ediel_sol  =         0.00000000
  ---------------------------------------------------
  free energy    TOTEN  =       -13.83662941 eV

  energy without entropy =      -13.83662941  energy(sigma->0) =      -13.83662941


--------------------------------------------------------------------------------------------------------




--------------------------------------- Iteration      1(  13)  ---------------------------------------


    POTLOK:  cpu time    0.0554: real time    0.0581
    SETDIJ:  cpu time    0.0053: real time    0.0053
     EDDAV:  cpu time    0.3022: real time    0.3025
       DOS:  cpu time    0.0002: real time    0.0002
    CHARGE:  cpu time    0.0334: real time    0.0334
    MIXING:  cpu time    0.0016: real time    0.0016
    --------------------------------------------
      LOOP:  cpu time    0.3982: real time    0.4011

 eigenvalue-minimisations  :   352
 total energy-change (2. order) : 0.6533642E-02  (-0.1631091E-02)
 number of electron      51.9999989 magnetization 
 augmentation part        1.3706621 magnetization 

 Broyden mixing:
  rms(total) = 0.29446E-01    rms(broyden)= 0.29446E-01
  rms(prec ) = 0.53726E-01
  weight for this iteration     100.00

 eigenvalues of (default mixing * dielectric matrix)
  average eigenvalue GAMMA=   1.1883
  2.6316  2.1265  1.2124  1.2124  0.2397  0.7627  0.7627  0.5585

 Free energy of the ion-electron system (eV)
  ---------------------------------------------------
  alpha Z        PSCENC =       160.27286088
  Ewald energy   TEWEN  =     -2612.89942793
  -Hartree energ DENC   =     -2066.54127089
  -exchange      EXHF   =         0.00000000
  -V(xc)+E(xc)   XCENC  =       184.96281194
  PAW double counting   =     10438.55254795   -10396.83450963
  entropy T*S    EENTRO =        -0.00000000
  eigenvalues    EBANDS =      -553.18573684
  atomic energy  EATOM  =      4831.84262874
  Solvation  Ediel_sol  =         0.00000000
  ---------------------------------------------------
  free energy    TOTEN  =       -13.83009577 eV

  energy without entropy =      -13.83009577  energy(sigma->0) =      -13.83009577


--------------------------------------------------------------------------------------------------------




--------------------------------------- Iteration      1(  14)  ---------------------------------------


    POTLOK:  cpu time    0.0551: real time    0.0579
    SETDIJ:  cpu time    0.0053: real time    0.0053
     EDDAV:  cpu time    0.2802: real time    0.2802
       DOS:  cpu time    0.0002: real time    0.0002
    CHARGE:  cpu time    0.0314: real time    0.0314
    MIXING:  cpu time    0.0017: real time    0.0017
    --------------------------------------------
      LOOP:  cpu time    0.3739: real time    0.3768

 eigenvalue-minimisations  :   320
 total energy-change (2. order) : 0.2019755E-02  (-0.3140418E-03)
 number of electron      51.9999989 magnetization 
 augmentation part        1.3631969 magnetization 

 Broyden mixing:
  rms(total) = 0.16815E-01    rms(broyden)= 0.16815E-01
  rms(prec ) = 0.37513E-01
  weight for this iteration     100.00

 eigenvalues of (default mixing * dielectric matrix)
  average eigenvalue GAMMA=   1.1846
  2.3908  2.3908  1.3430  1.3430  0.2397  0.5560  0.8426  0.8426  0.7131

 Free energy of the ion-electron system (eV)
  ---------------------------------------------------
  alpha Z        PSCENC =       160.27286088
  Ewald energy   TEWEN  =     -2612.89942793
  -Hartree energ DENC   =     -2067.07586149
  -exchange      EXHF   =         0.00000000
  -V(xc)+E(xc)   XCENC  =       184.97760586
  PAW double counting   =     10454.12458525   -10412.37668306
  entropy T*S    EENTRO =        -0.00000000
  eigenvalues    EBANDS =      -552.69378426
  atomic energy  EATOM  =      4831.84262874
  Solvation  Ediel_sol  =         0.00000000
  ---------------------------------------------------
  free energy    TOTEN  =       -13.82807602 eV

  energy without entropy =      -13.82807602  energy(sigma->0) =      -13.82807602


--------------------------------------------------------------------------------------------------------




--------------------------------------- Iteration      1(  15)  ---------------------------------------


    POTLOK:  cpu time    0.0550: real time    0.0589
    SETDIJ:  cpu time    0.0053: real time    0.0053
     EDDAV:  cpu time    0.2965: real time    0.2966
       DOS:  cpu time    0.0002: real time    0.0002
    CHARGE:  cpu time    0.0314: real time    0.0314
    MIXING:  cpu time    0.0017: real time    0.0017
    --------------------------------------------
      LOOP:  cpu time    0.3902: real time    0.3942

 eigenvalue-minimisations  :   344
 total energy-change (2. order) : 0.1378977E-02  (-0.1052099E-03)
 number of electron      51.9999989 magnetization 
 augmentation part        1.3623782 magnetization 

 Broyden mixing:
  rms(total) = 0.12532E-01    rms(broyden)= 0.12532E-01
  rms(prec ) = 0.30055E-01
  weight for this iteration     100.00

 eigenvalues of (default mixing * dielectric matrix)
  average eigenvalue GAMMA=   1.2699
  2.4022  2.4022  2.2694  1.1809  1.1809  0.2397  0.9286  0.7688  0.7688  0.5573

 Free energy of the ion-electron system (eV)
  ---------------------------------------------------
  alpha Z        PSCENC =       160.27286088
  Ewald energy   TEWEN  =     -2612.89942793
  -Hartree energ DENC   =     -2067.30230891
  -exchange      EXHF   =         0.00000000
  -V(xc)+E(xc)   XCENC  =       184.98326266
  PAW double counting   =     10450.44782125   -10408.68800320
  entropy T*S    EENTRO =        -0.00000000
  eigenvalues    EBANDS =      -552.48353052
  atomic energy  EATOM  =      4831.84262874
  Solvation  Ediel_sol  =         0.00000000
  ---------------------------------------------------
  free energy    TOTEN  =       -13.82669704 eV

  energy without entropy =      -13.82669704  energy(sigma->0) =      -13.82669704


--------------------------------------------------------------------------------------------------------




--------------------------------------- Iteration      1(  16)  ---------------------------------------


    POTLOK:  cpu time    0.0551: real time    0.0588
    SETDIJ:  cpu time    0.0053: real time    0.0053
     EDDAV:  cpu time    0.2876: real time    0.2878
       DOS:  cpu time    0.0002: real time    0.0002
    CHARGE:  cpu time    0.0315: real time    0.0315
    MIXING:  cpu time    0.0018: real time    0.0018
    --------------------------------------------
      LOOP:  cpu time    0.3816: real time    0.3854

 eigenvalue-minimisations  :   328
 total energy-change (2. order) : 0.1547277E-02  (-0.2372882E-03)
 number of electron      51.9999989 magnetization 
 augmentation part        1.3639039 magnetization 

 Broyden mixing:
  rms(total) = 0.70438E-02    rms(broyden)= 0.70436E-02
  rms(prec ) = 0.18025E-01
  weight for this iteration     100.00

 eigenvalues of (default mixing * dielectric matrix)
  average eigenvalue GAMMA=   1.3105
  2.8017  2.8017  1.6820  1.6820  0.2397  1.1391  1.1391  0.5570  0.8030  0.8030
  0.7676

 Free energy of the ion-electron system (eV)
  ---------------------------------------------------
  alpha Z        PSCENC =       160.27286088
  Ewald energy   TEWEN  =     -2612.89942793
  -Hartree energ DENC   =     -2067.54111195
  -exchange      EXHF   =         0.00000000
  -V(xc)+E(xc)   XCENC  =       184.98858617
  PAW double counting   =     10452.67748460   -10410.92201681
  entropy T*S    EENTRO =        -0.00000000
  eigenvalues    EBANDS =      -552.24415347
  atomic energy  EATOM  =      4831.84262874
  Solvation  Ediel_sol  =         0.00000000
  ---------------------------------------------------
  free energy    TOTEN  =       -13.82514976 eV

  energy without entropy =      -13.82514976  energy(sigma->0) =      -13.82514976


--------------------------------------------------------------------------------------------------------




--------------------------------------- Iteration      1(  17)  ---------------------------------------


    POTLOK:  cpu time    0.0551: real time    0.0579
    SETDIJ:  cpu time    0.0053: real time    0.0053
     EDDAV:  cpu time    0.2846: real time    0.2846
       DOS:  cpu time    0.0003: real time    0.0003
    CHARGE:  cpu time    0.0314: real time    0.0314
    MIXING:  cpu time    0.0018: real time    0.0018
    --------------------------------------------
      LOOP:  cpu time    0.3785: real time    0.3814

 eigenvalue-minimisations  :   328
 total energy-change (2. order) : 0.5262289E-03  (-0.8032343E-04)
 number of electron      51.9999989 magnetization 
 augmentation part        1.3643866 magnetization 

 Broyden mixing:
  rms(total) = 0.48523E-02    rms(broyden)= 0.48523E-02
  rms(prec ) = 0.12075E-01
  weight for this iteration     100.00

 eigenvalues of (default mixing * dielectric matrix)
  average eigenvalue GAMMA=   1.3204
  3.0288  3.0288  1.7334  1.7334  0.2397  1.0903  1.0903  0.5571  0.9030  0.8249
  0.8249  0.7902

 Free energy of the ion-electron system (eV)
  ---------------------------------------------------
  alpha Z        PSCENC =       160.27286088
  Ewald energy   TEWEN  =     -2612.89942793
  -Hartree energ DENC   =     -2067.67425194
  -exchange      EXHF   =         0.00000000
  -V(xc)+E(xc)   XCENC  =       184.99051124
  PAW double counting   =     10450.52016182   -10408.76367873
  entropy T*S    EENTRO =        -0.00000000
  eigenvalues    EBANDS =      -552.11342761
  atomic energy  EATOM  =      4831.84262874
  Solvation  Ediel_sol  =         0.00000000
  ---------------------------------------------------
  free energy    TOTEN  =       -13.82462353 eV

  energy without entropy =      -13.82462353  energy(sigma->0) =      -13.82462353


--------------------------------------------------------------------------------------------------------




--------------------------------------- Iteration      1(  18)  ---------------------------------------


    POTLOK:  cpu time    0.0552: real time    0.0588
    SETDIJ:  cpu time    0.0054: real time    0.0054
     EDDAV:  cpu time    0.2953: real time    0.2956
       DOS:  cpu time    0.0002: real time    0.0002
    CHARGE:  cpu time    0.0314: real time    0.0314
    MIXING:  cpu time    0.0019: real time    0.0019
    --------------------------------------------
      LOOP:  cpu time    0.3894: real time    0.3932

 eigenvalue-minimisations  :   344
 total energy-change (2. order) : 0.2790350E-03  (-0.4911029E-04)
 number of electron      51.9999989 magnetization 
 augmentation part        1.3643648 magnetization 

 Broyden mixing:
  rms(total) = 0.25896E-02    rms(broyden)= 0.25895E-02
  rms(prec ) = 0.67754E-02
  weight for this iteration     100.00

 eigenvalues of (default mixing * dielectric matrix)
  average eigenvalue GAMMA=   1.4271
  3.6848  3.4399  1.9742  1.9742  0.2397  1.3251  1.1321  1.1321  0.5569  0.7808
  0.7808  0.8078  0.7238

 Free energy of the ion-electron system (eV)
  ---------------------------------------------------
  alpha Z        PSCENC =       160.27286088
  Ewald energy   TEWEN  =     -2612.89942793
  -Hartree energ DENC   =     -2067.77684544
  -exchange      EXHF   =         0.00000000
  -V(xc)+E(xc)   XCENC  =       184.99194401
  PAW double counting   =     10447.64171254   -10405.88373692
  entropy T*S    EENTRO =        -0.00000000
  eigenvalues    EBANDS =      -552.01348038
  atomic energy  EATOM  =      4831.84262874
  Solvation  Ediel_sol  =         0.00000000
  ---------------------------------------------------
  free energy    TOTEN  =       -13.82434450 eV

  energy without entropy =      -13.82434450  energy(sigma->0) =      -13.82434450


--------------------------------------------------------------------------------------------------------




--------------------------------------- Iteration      1(  19)  ---------------------------------------


    POTLOK:  cpu time    0.0572: real time    0.0612
    SETDIJ:  cpu time    0.0054: real time    0.0054
     EDDAV:  cpu time    0.2700: real time    0.2700
       DOS:  cpu time    0.0002: real time    0.0002
    CHARGE:  cpu time    0.0314: real time    0.0314
    MIXING:  cpu time    0.0020: real time    0.0020
    --------------------------------------------
      LOOP:  cpu time    0.3661: real time    0.3701

 eigenvalue-minimisations  :   304
 total energy-change (2. order) : 0.1218963E-03  (-0.3778863E-04)
 number of electron      51.9999989 magnetization 
 augmentation part        1.3648275 magnetization 

 Broyden mixing:
  rms(total) = 0.19662E-02    rms(broyden)= 0.19661E-02
  rms(prec ) = 0.29769E-02
  weight for this iteration     100.00

 eigenvalues of (default mixing * dielectric matrix)
  average eigenvalue GAMMA=   1.4825
  5.1477  2.6273  2.6273  1.6878  0.2397  1.3144  1.3144  1.0691  1.0691  0.5569
  0.7948  0.7948  0.7893  0.7221

 Free energy of the ion-electron system (eV)
  ---------------------------------------------------
  alpha Z        PSCENC =       160.27286088
  Ewald energy   TEWEN  =     -2612.89942793
  -Hartree energ DENC   =     -2067.84390786
  -exchange      EXHF   =         0.00000000
  -V(xc)+E(xc)   XCENC  =       184.99263150
  PAW double counting   =     10446.16579594   -10404.40870381
  entropy T*S    EENTRO =        -0.00000000
  eigenvalues    EBANDS =      -551.94610006
  atomic energy  EATOM  =      4831.84262874
  Solvation  Ediel_sol  =         0.00000000
  ---------------------------------------------------
  free energy    TOTEN  =       -13.82422260 eV

  energy without entropy =      -13.82422260  energy(sigma->0) =      -13.82422260


--------------------------------------------------------------------------------------------------------




--------------------------------------- Iteration      1(  20)  ---------------------------------------


    POTLOK:  cpu time    0.0552: real time    0.0587
    SETDIJ:  cpu time    0.0054: real time    0.0054
     EDDAV:  cpu time    0.2539: real time    0.2539
       DOS:  cpu time    0.0002: real time    0.0002
    CHARGE:  cpu time    0.0314: real time    0.0314
    MIXING:  cpu time    0.0020: real time    0.0020
    --------------------------------------------
      LOOP:  cpu time    0.3481: real time    0.3516

 eigenvalue-minimisations  :   280
 total energy-change (2. order) : 0.1066913E-04  (-0.1102234E-04)
 number of electron      51.9999989 magnetization 
 augmentation part        1.3649388 magnetization 

 Broyden mixing:
  rms(total) = 0.71398E-03    rms(broyden)= 0.71391E-03
  rms(prec ) = 0.87790E-03
  weight for this iteration     100.00

 eigenvalues of (default mixing * dielectric matrix)
  average eigenvalue GAMMA=   1.4380
  5.4040  2.6079  2.6079  1.6023  1.3824  1.3824  0.2397  1.0907  1.0907  0.5569
  0.7968  0.7968  0.8435  0.7286  0.4396

 Free energy of the ion-electron system (eV)
  ---------------------------------------------------
  alpha Z        PSCENC =       160.27286088
  Ewald energy   TEWEN  =     -2612.89942793
  -Hartree energ DENC   =     -2067.87522704
  -exchange      EXHF   =         0.00000000
  -V(xc)+E(xc)   XCENC  =       184.99323253
  PAW double counting   =     10449.27824070   -10407.52216873
  entropy T*S    EENTRO =        -0.00000000
  eigenvalues    EBANDS =      -551.91435108
  atomic energy  EATOM  =      4831.84262874
  Solvation  Ediel_sol  =         0.00000000
  ---------------------------------------------------
  free energy    TOTEN  =       -13.82421193 eV

  energy without entropy =      -13.82421193  energy(sigma->0) =      -13.82421193


--------------------------------------------------------------------------------------------------------




--------------------------------------- Iteration      1(  21)  ---------------------------------------


    POTLOK:  cpu time    0.0551: real time    0.0590
    SETDIJ:  cpu time    0.0054: real time    0.0054
     EDDAV:  cpu time    0.2540: real time    0.2542
       DOS:  cpu time    0.0002: real time    0.0002
    --------------------------------------------
      LOOP:  cpu time    0.3147: real time    0.3188

 eigenvalue-minimisations  :   280
 total energy-change (2. order) : 0.4051799E-08  (-0.7710086E-06)
 number of electron      51.9999989 magnetization 
 augmentation part        1.3649388 magnetization 

 Free energy of the ion-electron system (eV)
  ---------------------------------------------------
  alpha Z        PSCENC =       160.27286088
  Ewald energy   TEWEN  =     -2612.89942793
  -Hartree energ DENC   =     -2067.88120829
  -exchange      EXHF   =         0.00000000
  -V(xc)+E(xc)   XCENC  =       184.99337191
  PAW double counting   =     10449.40153958   -10407.64496456
  entropy T*S    EENTRO =        -0.00000000
  eigenvalues    EBANDS =      -551.90901225
  atomic energy  EATOM  =      4831.84262874
  Solvation  Ediel_sol  =         0.00000000
  ---------------------------------------------------
  free energy    TOTEN  =       -13.82421193 eV

  energy without entropy =      -13.82421193  energy(sigma->0) =      -13.82421193


--------------------------------------------------------------------------------------------------------




 average (electrostatic) potential at core
  the test charge radii are     1.0818  0.9698
  (the norm of the test charge is              1.0000)
       1 -75.1334       2 -75.1554       3 -88.4325       4 -89.3855       5 -85.2578
       6 -85.1649
 
 
 
 E-fermi :   6.7123     XC(G=0): -10.0190     alpha+bet :-12.2268

 Fermi energy:         6.7122719907

 k-point     1 :       0.2500    0.2500    0.0000
  band No.  band energies     occupation 
      1     -54.4084      2.00000
      2     -54.3380      2.00000
      3     -28.6891      2.00000
      4     -28.6336      2.00000
      5     -28.5986      2.00000
      6     -28.5044      2.00000
      7     -28.4521      2.00000
      8     -28.3789      2.00000
      9     -15.0948      2.00000
     10      -5.9739      2.00000
     11      -5.8346      2.00000
     12      -4.9737      2.00000
     13      -4.4906      2.00000
     14      -3.7938      2.00000
     15       0.3433      2.00000
     16       1.4986      2.00000
     17       1.6224      2.00000
     18       2.4465      2.00000
     19       2.8782      2.00000
     20       3.2433      2.00000
     21       3.4089      2.00000
     22       3.9758      2.00000
     23       5.3155      2.00000
     24       5.5831      2.00000
     25       5.9585      2.00000
     26       6.3756      2.00000
     27       7.6144      0.00000
     28       7.8989      0.00000
     29       8.4974      0.00000
     30       9.0471      0.00000
     31       9.2605      0.00000
     32       9.5390      0.00000

 k-point     2 :      -0.2500    0.5000    0.0000
  band No.  band energies     occupation 
      1     -54.4083      2.00000
      2     -54.3380      2.00000
      3     -28.7722      2.00000
      4     -28.6597      2.00000
      5     -28.5035      2.00000
      6     -28.4881      2.00000
      7     -28.4521      2.00000
      8     -28.3798      2.00000
      9     -15.0352      2.00000
     10      -6.0263      2.00000
     11      -5.8373      2.00000
     12      -5.7227      2.00000
     13      -3.9906      2.00000
     14      -3.7049      2.00000
     15       0.2207      2.00000
     16       1.3616      2.00000
     17       1.6059      2.00000
     18       2.6383      2.00000
     19       2.9154      2.00000
     20       3.4001      2.00000
     21       3.4285      2.00000
     22       4.2169      2.00000
     23       5.3525      2.00000
     24       5.5880      2.00000
     25       5.9627      2.00000
     26       6.4775      2.00000
     27       7.6494      0.00000
     28       8.0439      0.00000
     29       8.5072      0.00000
     30       8.8267      0.00000
     31       9.2805      0.00000
     32       9.5355      0.00000

 k-point     3 :      -0.2500    0.2500    0.0000
  band No.  band energies     occupation 
      1     -54.4268      2.00000
      2     -54.3546      2.00000
      3     -28.7270      2.00000
      4     -28.6510      2.00000
      5     -28.4826      2.00000
      6     -28.4014      2.00000
      7     -28.3516      2.00000
      8     -28.2806      2.00000
      9     -15.5492      2.00000
     10      -6.7879      2.00000
     11      -6.5510      2.00000
     12      -4.8485      2.00000
     13      -4.3021      2.00000
     14      -2.2973      2.00000
     15      -0.0347      2.00000
     16       1.8974      2.00000
     17       2.2461      2.00000
     18       2.8366      2.00000
     19       3.0345      2.00000
     20       3.9641      2.00000
     21       4.3150      2.00000
     22       4.6572      2.00000
     23       5.3185      2.00000
     24       5.6431      2.00000
     25       5.7363      2.00000
     26       5.9722      2.00000
     27       7.2783      0.00000
     28       7.2902      0.00000
     29       7.9791      0.00000
     30       8.4332      0.00000
     31       8.6470      0.00000
     32       9.6925      0.00000

 k-point     4 :      -0.2500    0.0000    0.0000
  band No.  band energies     occupation 
      1     -54.4269      2.00000
      2     -54.3546      2.00000
      3     -28.7171      2.00000
      4     -28.5844      2.00000
      5     -28.4826      2.00000
      6     -28.4293      2.00000
      7     -28.4024      2.00000
      8     -28.2796      2.00000
      9     -15.5964      2.00000
     10      -6.7693      2.00000
     11      -6.5499      2.00000
     12      -4.7005      2.00000
     13      -4.1116      2.00000
     14      -1.9991      2.00000
     15      -0.1340      2.00000
     16       1.7038      2.00000
     17       2.1942      2.00000
     18       2.7559      2.00000
     19       2.9266      2.00000
     20       3.6467      2.00000
     21       4.1389      2.00000
     22       4.3156      2.00000
     23       5.1184      2.00000
     24       5.6871      2.00000
     25       5.9412      2.00000
     26       6.3664      2.00000
     27       6.9449      0.00000
     28       7.2899      0.00000
     29       7.3536      0.00000
     30       8.3896      0.00000
     31       8.9650      0.00000
     32       9.1352      0.00000


--------------------------------------------------------------------------------------------------------


 soft charge-density along one line, spin component           1
         0         1         2         3         4         5         6         7         8         9
 total charge-density along one line
 
 pseudopotential strength for first ion, spin component:           1
 -5.173  11.270  -0.013  -0.033  -0.000   0.013   0.039   0.000
 11.270   3.279   0.009   0.030   0.000  -0.003  -0.007  -0.000
 -0.013   0.009 -17.990   0.011  -0.000   8.787  -0.013   0.000
 -0.033   0.030   0.011 -17.980   0.000  -0.013   8.779  -0.000
 -0.000   0.000  -0.000   0.000 -17.937   0.000  -0.000   8.734
  0.013  -0.003   8.787  -0.013   0.000   5.832   0.008  -0.000
  0.039  -0.007  -0.013   8.779  -0.000   0.008   5.837   0.000
  0.000  -0.000   0.000  -0.000   8.734  -0.000   0.000   5.862
 -0.000   0.000  -0.000   0.000  -0.004   0.000  -0.000   0.003
  0.013  -0.008  -0.033  -0.015   0.000   0.020   0.009  -0.000
 -0.012   0.007   0.003  -0.040   0.000  -0.002   0.025  -0.000
  0.000  -0.000   0.000  -0.000  -0.030  -0.000   0.000   0.019
  0.030  -0.015   0.016   0.002  -0.000  -0.009  -0.000   0.000
 -0.000   0.000  -0.000   0.000  -0.004   0.000  -0.000   0.003
  0.013  -0.008  -0.034  -0.015   0.000   0.021   0.010  -0.000
 -0.012   0.007   0.003  -0.041   0.000  -0.002   0.026  -0.000
  0.000  -0.000   0.000  -0.000  -0.031  -0.000   0.000   0.020
  0.031  -0.015   0.017   0.002  -0.000  -0.010  -0.000   0.000
 total augmentation occupancy for first ion, spin component:           1
  1.997  -0.031   0.000   0.001   0.000  -0.000   0.002   0.000   0.000  -0.033   0.008   0.000  -0.051   0.000   0.031  -0.007
 -0.031   1.181   0.005   0.020   0.000  -0.014  -0.028   0.000   0.000   0.143  -0.065   0.000  -0.040   0.000  -0.112   0.141
  0.000   0.005   1.999  -0.000   0.000  -0.036   0.003   0.000   0.000   0.011  -0.007   0.000  -0.001   0.000  -0.003   0.010
  0.001   0.020  -0.000   2.000   0.000   0.003  -0.037   0.000   0.000   0.006   0.010   0.000   0.017   0.000  -0.002  -0.003
  0.000   0.000   0.000   0.000   1.999   0.000   0.000  -0.034   0.017   0.000   0.000   0.017   0.000  -0.008   0.000   0.000
 -0.000  -0.014  -0.036   0.003   0.000   0.090  -0.010   0.000   0.000   0.001   0.021   0.000   0.169   0.000   0.002  -0.031
  0.002  -0.028   0.003  -0.037   0.000  -0.010   0.108   0.000   0.000   0.052  -0.000   0.000  -0.059   0.000  -0.046   0.016
  0.000   0.000   0.000   0.000  -0.034   0.000   0.000   0.087   0.183   0.000   0.000  -0.004   0.000  -0.196   0.000   0.000
  0.000   0.000   0.000   0.000   0.017   0.000   0.000   0.183   2.704   0.000   0.000  -0.260   0.000  -3.109   0.000   0.000
 -0.033   0.143   0.011   0.006   0.000   0.001   0.052   0.000   0.000   4.965   0.475   0.000  -0.590   0.000  -5.721  -0.180
  0.008  -0.065  -0.007   0.010   0.000   0.021  -0.000   0.000   0.000   0.475   2.326   0.000  -0.287   0.000  -0.186  -2.485
  0.000   0.000   0.000   0.000   0.017   0.000   0.000  -0.004  -0.260   0.000   0.000   4.995   0.000   0.145   0.000   0.000
 -0.051  -0.040  -0.001   0.017   0.000   0.169  -0.059   0.000   0.000  -0.590  -0.287   0.000   2.867   0.000   0.320   0.044
  0.000   0.000   0.000   0.000  -0.008   0.000   0.000  -0.196  -3.109   0.000   0.000   0.145   0.000   4.348   0.000   0.000
  0.031  -0.112  -0.003  -0.002   0.000   0.002  -0.046   0.000   0.000  -5.721  -0.186   0.000   0.320   0.000   7.170   0.014
 -0.007   0.141   0.010  -0.003   0.000  -0.031   0.016   0.000   0.000  -0.180  -2.485   0.000   0.044   0.000   0.014   3.546
  0.000   0.000   0.000   0.000  -0.008   0.000   0.000   0.003   0.147   0.000   0.000  -5.850   0.000  -0.046   0.000   0.000
  0.046  -0.035   0.007  -0.008   0.000  -0.187   0.019   0.000   0.000   0.314   0.035   0.000  -3.175   0.000  -0.112   0.057


------------------------ aborting loop because EDIFF is reached ----------------------------------------


    CHARGE:  cpu time    0.0315: real time    0.0315
    FORLOC:  cpu time    0.0047: real time    0.0047
    FORNL :  cpu time    0.0542: real time    0.0542
    STRESS:  cpu time    0.1191: real time    0.1191
    FORCOR:  cpu time    0.0590: real time    0.0591
    FORHAR:  cpu time    0.0146: real time    0.0146
    MIXING:  cpu time    0.0021: real time    0.0021
    OFIELD:  cpu time    0.0000: real time    0.0000

 ---------------------------------------------------------------------------------------------

         DFTD3 V3.0 Rev 1        
 IVDW         = 12
 DF pbe       
 parameters
 VDW_S6       =    1.0000
 VDW_S8       =    0.7875
 VDW_A1       =    0.4289
 VDW_A2       =    4.4407
 k1-k3        =   16.0000    1.3333   -4.0000
 VDW_RADIUS   =   50.2022 A
 VDW_CNRADIUS =   21.1671 A
 Edisp (eV)   -2.38740

 E6    (eV) :    -1.4207
 E8    (eV) :    -0.9667
 % E8        : 40.49
    FORVDW:  cpu time    0.0373: real time    0.0510

  FORCE on cell =-STRESS in cart. coord.  units (eV):
  Direction    XX          YY          ZZ          XY          YZ          ZX
  --------------------------------------------------------------------------------------
  Alpha Z   160.27286   160.27286   160.27286
  Ewald       1.93804   161.37789 -2776.21814     0.00000  -129.79448    -0.00000
  Hartree  1521.38829  1545.37836  -998.86265     0.00000    -0.03779    -0.00000
  E(xc)    -223.50479  -223.77618  -224.52786    -0.00000     0.54350     0.00000
  Local   -2574.68413 -2719.60784  2783.02991     0.00000    89.61229     0.00000
  n-local   242.79519   273.79053   289.80057    -3.13549   -39.07534    -0.14332
  augment    -5.80191    -2.91549     0.41955    -0.00000    -5.50304     0.00000
  Kinetic   875.74443   866.69276   868.36983    -3.87416     9.15176     2.03751
  Fock        0.00000     0.00000     0.00000     0.00000     0.00000     0.00000
  vdW        -2.43973    -2.44429    -2.17833    -0.00000     0.00450     0.00000
  -------------------------------------------------------------------------------------
  Total      -4.29175    58.76860   100.10573     0.00000   -75.09860     0.00000
  in kB     -58.24030   797.50615  1358.46259     0.00000 -1019.10883     0.00000
  external pressure =      699.24 kB  Pullay stress =        0.00 kB


 VOLUME and BASIS-vectors are now :
 -----------------------------------------------------------------------------
  energy-cutoff  :      500.00
  volume of cell :      118.07
      direct lattice vectors                 reciprocal lattice vectors
     1.596118927 -2.764559076  0.000000000     0.313259865 -0.180860668  0.000000000
     1.596118927  2.764559076  0.000000000     0.313259865  0.180860668  0.000000000
     0.000000000  0.000000000 13.378293991     0.000000000  0.000000000  0.074747946

  length of vectors
     3.192237854  3.192237854 13.378293991     0.361721335  0.361721335  0.074747946


 FORCES acting on ions
    electron-ion (+dipol)            ewald-force                    non-local-force                 convergence-correction
 -----------------------------------------------------------------------------------------------
   -.149E-07 0.704E+01 0.326E+03   -.444E-13 -.844E+01 -.333E+03   0.000E+00 0.915E+00 0.378E+01   -.709E-13 0.854E-03 0.260E-02
   0.181E-07 -.247E+00 0.276E+03   -.121E-13 0.241E+00 -.268E+03   -.347E-17 0.138E-01 -.671E+01   0.519E-13 0.156E-04 0.902E-02
   0.170E-06 0.128E+03 -.649E+03   0.338E-15 -.148E+03 0.676E+03   0.000E+00 -.573E+02 0.781E+02   0.208E-13 -.516E-03 0.724E-02
   -.179E-06 -.136E+03 -.240E+03   0.161E-13 0.156E+03 0.212E+03   0.000E+00 0.572E+02 -.740E+02   0.223E-13 -.281E-04 0.568E-02
   -.992E-07 -.482E-01 -.269E+03   -.465E-14 -.269E-02 0.275E+03   -.278E-16 0.439E-01 -.639E+01   0.456E-14 0.904E-05 -.943E-02
   0.643E-07 -.272E+00 0.557E+03   0.149E-13 0.116E+00 -.562E+03   -.555E-16 0.437E+00 0.500E+01   -.193E-15 -.394E-04 -.925E-02
 -----------------------------------------------------------------------------------------------
   -.405E-07 -.133E+01 0.228E+00   -.299E-13 -.250E-13 0.114E-12   -.867E-16 0.133E+01 -.234E+00   0.284E-13 0.295E-03 0.586E-02
 
 
 POSITION                                       TOTAL-FORCE (eV/Angst)
 -----------------------------------------------------------------------------------
      1.59612     -0.92152      3.34457         0.000000     -0.478028     -2.417349
      1.59612      0.92152     10.03372         0.000000      0.008073      1.233225
      1.59612      0.15495      5.88217         0.000000    -76.988515    104.436107
      1.59612      0.92152      4.90874         0.000000     77.184616   -102.200710
      1.59612     -0.92152     11.59788         0.000000     -0.007028     -1.329379
      1.59612      0.92152      1.78041         0.000000      0.280881      0.278107
 -----------------------------------------------------------------------------------
    total drift:                               -0.000000      0.000650      0.000173


--------------------------------------------------------------------------------------------------------



  FREE ENERGIE OF THE ION-ELECTRON SYSTEM (eV)
  ---------------------------------------------------
  free  energy   TOTEN  =       -16.21161302 eV

  energy  without entropy=      -16.21161302  energy(sigma->0) =      -16.21161302
 


--------------------------------------------------------------------------------------------------------


    POTLOK:  cpu time    0.0612: real time    0.0612


--------------------------------------------------------------------------------------------------------


 stress matrix after NEB project (eV)
     -4.29175      0.00000      0.00000
      0.00000     58.76860    -75.09860
      0.00000    -75.09860    100.10573
  FORCES: max atom, RMS   129.746414   74.438004
  FORCE total and by dimension  182.335127  104.436107
  Stress total and by dimension  157.394168  100.105734
 writing wavefunctions
     LOOP+:  cpu time    8.6752: real time    8.8149
    4ORBIT:  cpu time    0.0000: real time    0.0000

 total amount of memory used by VASP MPI-rank0    37866. kBytes
=======================================================================

   base      :      30000. kBytes
   nonl-proj :        950. kBytes
   fftplans  :       2329. kBytes
   grid      :       3750. kBytes
   one-center:         31. kBytes
   wavefun   :        806. kBytes
 
  
  
 General timing and accounting informations for this job:
 ========================================================
  
                  Total CPU time used (sec):       10.294
                            User time (sec):        9.415
                          System time (sec):        0.879
                         Elapsed time (sec):       11.203
  
                   Maximum memory used (kb):      134076.
                   Average memory used (kb):          N/A
  
                          Minor page faults:        24211
                          Major page faults:          110
                 Voluntary context switches:         1148
