 vasp.6.2.0 18Jan21 (build Jul 31 2023 14:19:35) complex                        
  
 executed on             LinuxIFC date 2025.09.17  12:27:49
 running on    8 total cores
 distrk:  each k-point on    8 cores,    1 groups
 distr:  one band on NCORE=   4 cores,    2 groups


--------------------------------------------------------------------------------------------------------


 INCAR:
   SYSTEM = MoS2_SinglePoint_vdW_Coulomb
   PREC = Accurate
   ENCUT = 500
   GGA = PE
   ALGO = Normal
   NELM = 100
   NELMIN = 5
   EDIFF = 1E-6
   ISMEAR = 0
   SIGMA = 0.05
   IBRION = -1
   NSW = 0
   IVDW = 12
   LREAL = .FALSE.
   LCHARG = .TRUE.
   LWAVE = .TRUE.
   NWRITE = 1
   NCORE = 4

 POTCAR:    PAW_PBE Mo_sv 02Feb2006               
 POTCAR:    PAW_PBE S 06Sep2000                   
 POTCAR:    PAW_PBE Mo_sv 02Feb2006               
  local pseudopotential read in
  partial core-charges read in
  partial kinetic energy density read in
  atomic valenz-charges read in
  non local Contribution for L=           0  read in
    real space projection operators read in
  non local Contribution for L=           0  read in
    real space projection operators read in
  non local Contribution for L=           1  read in
    real space projection operators read in
  non local Contribution for L=           1  read in
    real space projection operators read in
  non local Contribution for L=           2  read in
    real space projection operators read in
  non local Contribution for L=           2  read in
    real space projection operators read in
    PAW grid and wavefunctions read in
 
   number of l-projection  operators is LMAX  =           6
   number of lm-projection operators is LMMAX =          18
 
 POTCAR:    PAW_PBE S 06Sep2000                   
  local pseudopotential read in
  partial core-charges read in
  partial kinetic energy density read in
  atomic valenz-charges read in
  non local Contribution for L=           0  read in
    real space projection operators read in
  non local Contribution for L=           0  read in
    real space projection operators read in
  non local Contribution for L=           1  read in
    real space projection operators read in
  non local Contribution for L=           1  read in
    real space projection operators read in
    PAW grid and wavefunctions read in
 
   number of l-projection  operators is LMAX  =           4
   number of lm-projection operators is LMMAX =           8
 
  PAW_PBE Mo_sv 02Feb2006               :
 energy of atom  1       EATOM=-1862.2866
 kinetic energy error for atom=    0.0074 (will be added to EATOM!!)
  PAW_PBE S 06Sep2000                   :
 energy of atom  2       EATOM= -276.8230
 kinetic energy error for atom=    0.0020 (will be added to EATOM!!)
 
 
 POSCAR: Mo S
  positions in direct lattice
  No initial velocities read in
 exchange correlation table for  LEXCH =        8
   RHO(1)=    0.500       N(1)  =     2000
   RHO(2)=  100.500       N(2)  =     4000

 VTST: version 4.0, (05/15/20)

 CHAIN: initializing optimizer
 
 OPT: Using VASP Dynamics algorithm
 CHAIN: Read ICHAIN            0
 
 POSCAR: Mo S
  positions in direct lattice
  No initial velocities read in
 


--------------------------------------------------------------------------------------------------------


 ion  position               nearest neighbor table
   1  0.667  0.333  0.250-   4 2.18   6 2.42   6 2.42   4 2.42   6 2.42
   2  0.333  0.667  0.750-   3 2.42   5 2.42   3 2.42   5 2.42   3 2.42   5 2.42
   3  0.667  0.333  0.633-   2 2.42   2 2.42   2 2.42
   4  0.663  0.885  0.373-   1 2.18   1 2.42
   5  0.667  0.333  0.867-   2 2.42   2 2.42   2 2.42
   6  0.333  0.667  0.133-   1 2.42   1 2.42   1 2.42
 
  LATTYP: Found a hexagonal cell.
 ALAT       =     3.1922378540
 C/A-ratio  =     4.1908825730
  
  Lattice vectors:
  
 A1 = (   1.5961189270,  -2.7645590765,   0.0000000000)
 A2 = (   1.5961189270,   2.7645590765,   0.0000000000)
 A3 = (   0.0000000000,   0.0000000000,  13.3782939911)


Analysis of symmetry for initial positions (statically):
=====================================================================
 Subroutine PRICEL returns:
 Original cell was already a primitive cell.
 

 Routine SETGRP: Setting up the symmetry group for a 
 hexagonal supercell.


 Subroutine GETGRP returns: Found  1 space group operations
 (whereof  1 operations were pure point group operations)
 out of a pool of 24 trial point group operations.


The static configuration has the point symmetry C_1 .


Analysis of symmetry for dynamics (positions and initial velocities):
=====================================================================
 Subroutine PRICEL returns:
 Original cell was already a primitive cell.
 

 Routine SETGRP: Setting up the symmetry group for a 
 hexagonal supercell.


 Subroutine GETGRP returns: Found  1 space group operations
 (whereof  1 operations were pure point group operations)
 out of a pool of 24 trial point group operations.


The dynamic configuration has the point symmetry C_1 .


 Subroutine INISYM returns: Found  1 space group operations
 (whereof  1 operations are pure point group operations),
 and found     1 'primitive' translations


----------------------------------------------------------------------------------------

                                     Primitive cell                                     

  volume of cell :     118.0652

  direct lattice vectors                    reciprocal lattice vectors
     1.596118927 -2.764559076  0.000000000     0.313259865 -0.180860668  0.000000000
     1.596118927  2.764559076  0.000000000     0.313259865  0.180860668  0.000000000
     0.000000000  0.000000000 13.378293991     0.000000000  0.000000000  0.074747946

  length of vectors
     3.192237854  3.192237854 13.378293991     0.361721335  0.361721335  0.074747946

  position of ions in fractional coordinates (direct lattice)
     0.666666667  0.333333333  0.250000000
     0.333333333  0.666666667  0.750000000
     0.666666667  0.333333333  0.633082000
     0.662986247  0.885252367  0.373241753
     0.666666667  0.333333333  0.866918000
     0.333333333  0.666666667  0.133082000

  ion indices of the primitive-cell ions
   primitive index   ion index
                 1           1
                 2           2
                 3           3
                 4           4
                 5           5
                 6           6

----------------------------------------------------------------------------------------

 
 
 KPOINTS: K-Spacing Value to Generate K-Mesh: 0.15

Automatic generation of k-mesh.
 Grid dimensions read from file:
 generate k-points for:    2    2    1

 Generating k-lattice:

  Cartesian coordinates                     Fractional coordinates (reciprocal lattice)
     0.156629933 -0.090430334  0.000000000     0.500000000  0.000000000  0.000000000
     0.156629933  0.090430334  0.000000000     0.000000000  0.500000000  0.000000000
     0.000000000  0.000000000  0.074747946     0.000000000  0.000000000  1.000000000

  Length of vectors
     0.180860668  0.180860668  0.074747946

  Shift w.r.t. Gamma in fractional coordinates (k-lattice)
     0.500000000  0.500000000  0.000000000

 
 Subroutine IBZKPT returns following result:
 ===========================================
 
 Found      6 irreducible k-points:
 
 Following reciprocal coordinates:
            Coordinates               Weight
  0.250000  0.250000  0.000000      2.000000
 -0.250000  0.500000  0.000000      2.000000
  0.500000  0.250000  0.000000      2.000000
 -0.250000  0.250000  0.000000      2.000000
 -0.250000  0.000000  0.000000      2.000000
  0.000000 -0.250000  0.000000      2.000000
 
 Following cartesian coordinates:
            Coordinates               Weight
  0.156630  0.000000  0.000000      2.000000
  0.078315  0.135646  0.000000      2.000000
  0.234945 -0.045215  0.000000      2.000000
  0.000000  0.090430  0.000000      2.000000
 -0.078315  0.045215  0.000000      2.000000
 -0.078315 -0.045215  0.000000      2.000000
 


--------------------------------------------------------------------------------------------------------




 Dimension of arrays:
   k-points           NKPTS =      6   k-points in BZ     NKDIM =      6   number of bands    NBANDS=     32
   number of dos      NEDOS =    301   number of ions     NIONS =      6
   non local maximal  LDIM  =      6   non local SUM 2l+1 LMDIM =     18
   total plane-waves  NPLWV =  56448
   max r-space proj   IRMAX =      1   max aug-charges    IRDMAX=  21106
   dimension x,y,z NGX =    24 NGY =   24 NGZ =   98
   dimension x,y,z NGXF=    48 NGYF=   48 NGZF=  196
   support grid    NGXF=    48 NGYF=   48 NGZF=  196
   ions per type =               2   4
   NGX,Y,Z   is equivalent  to a cutoff of  12.50, 12.50, 12.18 a.u.
   NGXF,Y,Z  is equivalent  to a cutoff of  25.00, 25.00, 24.36 a.u.

 SYSTEM =  MoS2_SinglePoint_vdW_Coulomb           
 POSCAR =  Mo S                                    

 Startparameter for this run:
   NWRITE =      1    write-flag & timer
   PREC   = accura    normal or accurate (medium, high low for compatibility)
   ISTART =      0    job   : 0-new  1-cont  2-samecut
   ICHARG =      2    charge: 1-file 2-atom 10-const
   ISPIN  =      1    spin polarized calculation?
   LNONCOLLINEAR =      F non collinear calculations
   LSORBIT =      F    spin-orbit coupling
   INIWAV =      1    electr: 0-lowe 1-rand  2-diag
   LASPH  =      F    aspherical Exc in radial PAW
   METAGGA=      F    non-selfconsistent MetaGGA calc.

 Electronic Relaxation 1
   ENCUT  =  500.0 eV  36.75 Ry    6.06 a.u.   5.82  5.82 24.39*2*pi/ulx,y,z
   ENINI  =  500.0     initial cutoff
   ENAUG  =  446.0 eV  augmentation charge cutoff
   NELM   =    100;   NELMIN=  5; NELMDL= -5     # of ELM steps 
   EDIFF  = 0.1E-05   stopping-criterion for ELM
   LREAL  =      F    real-space projection
   NLSPLINE    = F    spline interpolate recip. space projectors
   LCOMPAT=      F    compatible to vasp.4.4
   GGA_COMPAT  = T    GGA compatible to vasp.4.4-vasp.4.6
   LMAXPAW     = -100 max onsite density
   LMAXMIX     =    2 max onsite mixed and CHGCAR
   VOSKOWN=      0    Vosko Wilk Nusair interpolation
   ROPT   =    0.00000   0.00000
 Ionic relaxation
   EDIFFG = 0.1E-04   stopping-criterion for IOM
   NSW    =      0    number of steps for IOM
   NBLOCK =      1;   KBLOCK =      1    inner block; outer block 
   IBRION =     -1    ionic relax: 0-MD 1-quasi-New 2-CG
   NFREE  =      0    steps in history (QN), initial steepest desc. (CG)
   ISIF   =      2    stress and relaxation
   IWAVPR =     10    prediction:  0-non 1-charg 2-wave 3-comb
   ISYM   =      2    0-nonsym 1-usesym 2-fastsym
   LCORR  =      T    Harris-Foulkes like correction to forces

   POTIM  = 0.5000    time-step for ionic-motion
   TEIN   =    0.0    initial temperature
   TEBEG  =    0.0;   TEEND  =   0.0 temperature during run
   SMASS  =  -3.00    Nose mass-parameter (am)
   estimated Nose-frequenzy (Omega)   =  0.10E-29 period in steps = 0.13E+47 mass=  -0.233E-27a.u.
   SCALEE = 1.0000    scale energy and forces
   NPACO  =    256;   APACO  = 16.0  distance and # of slots for P.C.
   PSTRESS=    0.0 pullay stress

  Mass of Ions in am
   POMASS =  95.94 32.07
  Ionic Valenz
   ZVAL   =  14.00  6.00
  Atomic Wigner-Seitz radii
   RWIGS  =  -1.00 -1.00
  virtual crystal weights 
   VCA    =   1.00  1.00
   NELECT =      52.0000    total number of electrons
   NUPDOWN=      -1.0000    fix difference up-down

 DOS related values:
   EMIN   =  10.00;   EMAX   =-10.00  energy-range for DOS
   EFERMI =   0.00
   ISMEAR =     0;   SIGMA  =   0.05  broadening in eV -4-tet -1-fermi 0-gaus

 Electronic relaxation 2 (details)
   IALGO  =     38    algorithm
   LDIAG  =      T    sub-space diagonalisation (order eigenvalues)
   LSUBROT=      F    optimize rotation matrix (better conditioning)
   TURBO    =      0    0=normal 1=particle mesh
   IRESTART =      0    0=no restart 2=restart with 2 vectors
   NREBOOT  =      0    no. of reboots
   NMIN     =      0    reboot dimension
   EREF     =   0.00    reference energy to select bands
   IMIX   =      4    mixing-type and parameters
     AMIX     =   0.40;   BMIX     =  1.00
     AMIX_MAG =   1.60;   BMIX_MAG =  1.00
     AMIN     =   0.10
     WC   =   100.;   INIMIX=   1;  MIXPRE=   1;  MAXMIX= -45

 Intra band minimization:
   WEIMIN = 0.0000     energy-eigenvalue tresh-hold
   EBREAK =  0.78E-08  absolut break condition
   DEPER  =   0.30     relativ break condition  

   TIME   =   0.40     timestep for ELM

  volume/ion in A,a.u.               =      19.68       132.79
  Fermi-wavevector in a.u.,A,eV,Ry     =   1.245571  2.353789 21.108736  1.551448
  Thomas-Fermi vector in A             =   2.379788
 
 Write flags
   LWAVE        =      T    write WAVECAR
   LDOWNSAMPLE  =      F    k-point downsampling of WAVECAR
   LCHARG       =      T    write CHGCAR
   LVTOT        =      F    write LOCPOT, total local potential
   LVHAR        =      F    write LOCPOT, Hartree potential only
   LELF         =      F    write electronic localiz. function (ELF)
   LORBIT       =      0    0 simple, 1 ext, 2 COOP (PROOUT), +10 PAW based schemes


 Dipole corrections
   LMONO  =      F    monopole corrections only (constant potential shift)
   LDIPOL =      F    correct potential (dipole corrections)
   IDIPOL =      0    1-x, 2-y, 3-z, 4-all directions 
   EPSILON=  1.0000000 bulk dielectric constant

 Exchange correlation treatment:
   GGA     =    PE    GGA type
   LEXCH   =     8    internal setting for exchange type
   VOSKOWN=      0    Vosko Wilk Nusair interpolation
   LHFCALC =     F    Hartree Fock is set to
   LHFONE  =     F    Hartree Fock one center treatment
   AEXX    =    0.0000 exact exchange contribution

 Linear response parameters
   LEPSILON=     F    determine dielectric tensor
   LRPA    =     F    only Hartree local field effects (RPA)
   LNABLA  =     F    use nabla operator in PAW spheres
   LVEL    =     F    velocity operator in full k-point grid
   LINTERFAST=   F  fast interpolation
   KINTER  =     0    interpolate to denser k-point grid
   CSHIFT  =0.1000    complex shift for real part using Kramers Kronig
   OMEGAMAX=  -1.0    maximum frequency
   DEG_THRESHOLD= 0.2000000E-02 threshold for treating states as degnerate
   RTIME   =   -0.100 relaxation time in fs
  (WPLASMAI=    0.000 imaginary part of plasma frequency in eV, 0.658/RTIME)
   DFIELD  = 0.0000000 0.0000000 0.0000000 field for delta impulse in time
 
 Orbital magnetization related:
   ORBITALMAG=     F  switch on orbital magnetization
   LCHIMAG   =     F  perturbation theory with respect to B field
   DQ        =  0.001000  dq finite difference perturbation B field
   LLRAUG    =     F  two centre corrections for induced B field



--------------------------------------------------------------------------------------------------------


 Static calculation
 charge density and potential will be updated during run
 non-spin polarized calculation
 Variant of blocked Davidson
 Davidson routine will perform the subspace rotation
 perform sub-space diagonalisation
    after iterative eigenvector-optimisation
 modified Broyden-mixing scheme, WC =      100.0
 initial mixing is a Kerker type mixing with AMIX =  0.4000 and BMIX =      1.0000
 Hartree-type preconditioning will be used
 using additional bands            6
 reciprocal scheme for non local part
 use partial core corrections
 calculate Harris-corrections to forces 
   (improved forces if not selfconsistent)
 use gradient corrections 
 use of overlap-Matrix (Vanderbilt PP)
 Gauss-broadening in eV      SIGMA  =   0.05


--------------------------------------------------------------------------------------------------------


  energy-cutoff  :      500.00
  volume of cell :      118.07
      direct lattice vectors                 reciprocal lattice vectors
     1.596118927 -2.764559076  0.000000000     0.313259865 -0.180860668  0.000000000
     1.596118927  2.764559076  0.000000000     0.313259865  0.180860668  0.000000000
     0.000000000  0.000000000 13.378293991     0.000000000  0.000000000  0.074747946

  length of vectors
     3.192237854  3.192237854 13.378293991     0.361721335  0.361721335  0.074747946


 
 k-points in units of 2pi/SCALE and weight: K-Spacing Value to Generate K-Mesh: 0.15
   0.15662993  0.00000000  0.00000000       0.167
   0.07831497  0.13564550  0.00000000       0.167
   0.23494490 -0.04521517  0.00000000       0.167
   0.00000000  0.09043033  0.00000000       0.167
  -0.07831497  0.04521517  0.00000000       0.167
  -0.07831497 -0.04521517  0.00000000       0.167
 
 k-points in reciprocal lattice and weights: K-Spacing Value to Generate K-Mesh: 0.15
   0.25000000  0.25000000  0.00000000       0.167
  -0.25000000  0.50000000  0.00000000       0.167
   0.50000000  0.25000000  0.00000000       0.167
  -0.25000000  0.25000000  0.00000000       0.167
  -0.25000000  0.00000000  0.00000000       0.167
   0.00000000 -0.25000000  0.00000000       0.167
 
 position of ions in fractional coordinates (direct lattice) 
   0.66666667  0.33333333  0.25000000
   0.33333333  0.66666667  0.75000000
   0.66666667  0.33333333  0.63308200
   0.66298625  0.88525237  0.37324175
   0.66666667  0.33333333  0.86691800
   0.33333333  0.66666667  0.13308200
 
 position of ions in cartesian coordinates  (Angst):
   1.59611893 -0.92151969  3.34457350
   1.59611893  0.92151969 10.03372049
   1.59611893 -0.92151969  8.46955712
   2.47117296  0.61446782  4.99333790
   1.59611893 -0.92151969 11.59788387
   1.59611893  0.92151969  1.78041012
 


--------------------------------------------------------------------------------------------------------


 k-point   1 :   0.2500 0.2500 0.0000  plane waves:    3020
 k-point   2 :  -0.2500 0.5000 0.0000  plane waves:    3020
 k-point   3 :   0.5000 0.2500 0.0000  plane waves:    3020
 k-point   4 :  -0.2500 0.2500 0.0000  plane waves:    2992
 k-point   5 :  -0.2500 0.0000 0.0000  plane waves:    2992
 k-point   6 :   0.0000-0.2500 0.0000  plane waves:    2992

 maximum and minimum number of plane-waves per node :       767      745

 maximum number of plane-waves:      3020
 maximum index in each direction: 
   IXMAX=    6   IYMAX=    6   IZMAX=   24
   IXMIN=   -6   IYMIN=   -6   IZMIN=  -24


 parallel 3D FFT for wavefunctions:
    minimum data exchange during FFTs selected (reduces bandwidth)
 parallel 3D FFT for charge:
    minimum data exchange during FFTs selected (reduces bandwidth)


 total amount of memory used by VASP MPI-rank0    38677. kBytes
=======================================================================

   base      :      30000. kBytes
   nonl-proj :       1371. kBytes
   fftplans  :       2330. kBytes
   grid      :       3750. kBytes
   one-center:         31. kBytes
   wavefun   :       1195. kBytes
 
     INWAV:  cpu time    0.0000: real time    0.0001
 Broyden mixing: mesh for mixing (old mesh)
   NGX = 11   NGY = 11   NGZ = 49
  (NGX  = 48   NGY  = 48   NGZ  =196)
  gives a total of   5929 points

 initial charge density was supplied:
 charge density of overlapping atoms calculated
 number of electron      52.0000000 magnetization 
 keeping initial charge density in first step


--------------------------------------------------------------------------------------------------------


 Maximum index for augmentation-charges         2591 (set IRDMAX)


--------------------------------------------------------------------------------------------------------


 First call to EWALD:  gamma=   0.361
 Maximum number of real-space cells 4x 4x 1
 Maximum number of reciprocal cells 2x 2x 7

    FEWALD:  cpu time    0.0020: real time    0.0020


--------------------------------------- Iteration      1(   1)  ---------------------------------------


    POTLOK:  cpu time    0.0566: real time    0.0579
    SETDIJ:  cpu time    0.0055: real time    0.0055
     EDDAV:  cpu time    0.3936: real time    0.3937
       DOS:  cpu time    0.0007: real time    0.0006
    --------------------------------------------
      LOOP:  cpu time    0.4563: real time    0.4577

 eigenvalue-minimisations  :   432
 total energy-change (2. order) : 0.4246132E+03  (-0.2923390E+04)
 number of electron      52.0000000 magnetization 
 augmentation part       52.0000000 magnetization 

 Free energy of the ion-electron system (eV)
  ---------------------------------------------------
  alpha Z        PSCENC =       160.27286088
  Ewald energy   TEWEN  =     -2869.94819322
  -Hartree energ DENC   =     -1874.31564540
  -exchange      EXHF   =         0.00000000
  -V(xc)+E(xc)   XCENC  =       182.68004780
  PAW double counting   =      3865.57804258    -3815.84821480
  entropy T*S    EENTRO =        -0.00123055
  eigenvalues    EBANDS =       -55.64712935
  atomic energy  EATOM  =      4831.84262874
  Solvation  Ediel_sol  =         0.00000000
  ---------------------------------------------------
  free energy    TOTEN  =       424.61316668 eV

  energy without entropy =      424.61439723  energy(sigma->0) =      424.61378196


--------------------------------------------------------------------------------------------------------




--------------------------------------- Iteration      1(   2)  ---------------------------------------


     EDDAV:  cpu time    0.4092: real time    0.4123
       DOS:  cpu time    0.0007: real time    0.0007
    --------------------------------------------
      LOOP:  cpu time    0.4099: real time    0.4130

 eigenvalue-minimisations  :   464
 total energy-change (2. order) :-0.4467579E+03  (-0.4362324E+03)
 number of electron      52.0000000 magnetization 
 augmentation part       52.0000000 magnetization 

 Free energy of the ion-electron system (eV)
  ---------------------------------------------------
  alpha Z        PSCENC =       160.27286088
  Ewald energy   TEWEN  =     -2869.94819322
  -Hartree energ DENC   =     -1874.31564540
  -exchange      EXHF   =         0.00000000
  -V(xc)+E(xc)   XCENC  =       182.68004780
  PAW double counting   =      3865.57804258    -3815.84821480
  entropy T*S    EENTRO =        -0.00769176
  eigenvalues    EBANDS =      -502.39860742
  atomic energy  EATOM  =      4831.84262874
  Solvation  Ediel_sol  =         0.00000000
  ---------------------------------------------------
  free energy    TOTEN  =       -22.14477260 eV

  energy without entropy =      -22.13708084  energy(sigma->0) =      -22.14092672


--------------------------------------------------------------------------------------------------------




--------------------------------------- Iteration      1(   3)  ---------------------------------------


     EDDAV:  cpu time    0.4381: real time    0.4418
       DOS:  cpu time    0.0005: real time    0.0005
    --------------------------------------------
      LOOP:  cpu time    0.4386: real time    0.4423

 eigenvalue-minimisations  :   496
 total energy-change (2. order) :-0.2275436E+02  (-0.2232953E+02)
 number of electron      52.0000000 magnetization 
 augmentation part       52.0000000 magnetization 

 Free energy of the ion-electron system (eV)
  ---------------------------------------------------
  alpha Z        PSCENC =       160.27286088
  Ewald energy   TEWEN  =     -2869.94819322
  -Hartree energ DENC   =     -1874.31564540
  -exchange      EXHF   =         0.00000000
  -V(xc)+E(xc)   XCENC  =       182.68004780
  PAW double counting   =      3865.57804258    -3815.84821480
  entropy T*S    EENTRO =        -0.00000043
  eigenvalues    EBANDS =      -525.16066062
  atomic energy  EATOM  =      4831.84262874
  Solvation  Ediel_sol  =         0.00000000
  ---------------------------------------------------
  free energy    TOTEN  =       -44.89913447 eV

  energy without entropy =      -44.89913404  energy(sigma->0) =      -44.89913425


--------------------------------------------------------------------------------------------------------




--------------------------------------- Iteration      1(   4)  ---------------------------------------


     EDDAV:  cpu time    0.4120: real time    0.4142
       DOS:  cpu time    0.0006: real time    0.0006
    --------------------------------------------
      LOOP:  cpu time    0.4126: real time    0.4147

 eigenvalue-minimisations  :   464
 total energy-change (2. order) :-0.5735218E+00  (-0.5718749E+00)
 number of electron      52.0000000 magnetization 
 augmentation part       52.0000000 magnetization 

 Free energy of the ion-electron system (eV)
  ---------------------------------------------------
  alpha Z        PSCENC =       160.27286088
  Ewald energy   TEWEN  =     -2869.94819322
  -Hartree energ DENC   =     -1874.31564540
  -exchange      EXHF   =         0.00000000
  -V(xc)+E(xc)   XCENC  =       182.68004780
  PAW double counting   =      3865.57804258    -3815.84821480
  entropy T*S    EENTRO =        -0.00000772
  eigenvalues    EBANDS =      -525.73417515
  atomic energy  EATOM  =      4831.84262874
  Solvation  Ediel_sol  =         0.00000000
  ---------------------------------------------------
  free energy    TOTEN  =       -45.47265630 eV

  energy without entropy =      -45.47264858  energy(sigma->0) =      -45.47265244


--------------------------------------------------------------------------------------------------------




--------------------------------------- Iteration      1(   5)  ---------------------------------------


     EDDAV:  cpu time    0.4226: real time    0.4271
       DOS:  cpu time    0.0005: real time    0.0005
    CHARGE:  cpu time    0.0368: real time    0.0368
    MIXING:  cpu time    0.0014: real time    0.0014
    --------------------------------------------
      LOOP:  cpu time    0.4614: real time    0.4659

 eigenvalue-minimisations  :   480
 total energy-change (2. order) :-0.1536421E-01  (-0.1535618E-01)
 number of electron      51.9999990 magnetization 
 augmentation part        0.7217410 magnetization 

 Broyden mixing:
  rms(total) = 0.33298E+01    rms(broyden)= 0.33298E+01
  rms(prec ) = 0.34266E+01
  weight for this iteration     100.00

 Free energy of the ion-electron system (eV)
  ---------------------------------------------------
  alpha Z        PSCENC =       160.27286088
  Ewald energy   TEWEN  =     -2869.94819322
  -Hartree energ DENC   =     -1874.31564540
  -exchange      EXHF   =         0.00000000
  -V(xc)+E(xc)   XCENC  =       182.68004780
  PAW double counting   =      3865.57804258    -3815.84821480
  entropy T*S    EENTRO =        -0.00000811
  eigenvalues    EBANDS =      -525.74953897
  atomic energy  EATOM  =      4831.84262874
  Solvation  Ediel_sol  =         0.00000000
  ---------------------------------------------------
  free energy    TOTEN  =       -45.48802051 eV

  energy without entropy =      -45.48801240  energy(sigma->0) =      -45.48801645


--------------------------------------------------------------------------------------------------------




--------------------------------------- Iteration      1(   6)  ---------------------------------------


    POTLOK:  cpu time    0.0558: real time    0.0599
    SETDIJ:  cpu time    0.0054: real time    0.0054
     EDDAV:  cpu time    0.3560: real time    0.3560
       DOS:  cpu time    0.0002: real time    0.0002
    CHARGE:  cpu time    0.0360: real time    0.0360
    MIXING:  cpu time    0.0015: real time    0.0015
    --------------------------------------------
      LOOP:  cpu time    0.4550: real time    0.4591

 eigenvalue-minimisations  :   384
 total energy-change (2. order) : 0.1863754E+01  (-0.2236588E+01)
 number of electron      51.9999989 magnetization 
 augmentation part        2.0146694 magnetization 

 Broyden mixing:
  rms(total) = 0.13378E+01    rms(broyden)= 0.13378E+01
  rms(prec ) = 0.14747E+01
  weight for this iteration     100.00

 eigenvalues of (default mixing * dielectric matrix)
  average eigenvalue GAMMA=   1.1004
  1.1004

 Free energy of the ion-electron system (eV)
  ---------------------------------------------------
  alpha Z        PSCENC =       160.27286088
  Ewald energy   TEWEN  =     -2869.94819322
  -Hartree energ DENC   =     -1816.84571081
  -exchange      EXHF   =         0.00000000
  -V(xc)+E(xc)   XCENC  =       181.11612953
  PAW double counting   =      4573.76588108    -4530.82244623
  entropy T*S    EENTRO =        -0.00000000
  eigenvalues    EBANDS =      -573.00541659
  atomic energy  EATOM  =      4831.84262874
  Solvation  Ediel_sol  =         0.00000000
  ---------------------------------------------------
  free energy    TOTEN  =       -43.62426662 eV

  energy without entropy =      -43.62426662  energy(sigma->0) =      -43.62426662


--------------------------------------------------------------------------------------------------------




--------------------------------------- Iteration      1(   7)  ---------------------------------------


    POTLOK:  cpu time    0.0553: real time    0.0588
    SETDIJ:  cpu time    0.0053: real time    0.0053
     EDDAV:  cpu time    0.3580: real time    0.3594
       DOS:  cpu time    0.0007: real time    0.0007
    CHARGE:  cpu time    0.0362: real time    0.0362
    MIXING:  cpu time    0.0015: real time    0.0015
    --------------------------------------------
      LOOP:  cpu time    0.4571: real time    0.4620

 eigenvalue-minimisations  :   384
 total energy-change (2. order) : 0.4901778E+00  (-0.1228620E+01)
 number of electron      51.9999990 magnetization 
 augmentation part        1.2145040 magnetization 

 Broyden mixing:
  rms(total) = 0.89331E+00    rms(broyden)= 0.89330E+00
  rms(prec ) = 0.99944E+00
  weight for this iteration     100.00

 eigenvalues of (default mixing * dielectric matrix)
  average eigenvalue GAMMA=   1.1715
  1.7456  0.5974

 Free energy of the ion-electron system (eV)
  ---------------------------------------------------
  alpha Z        PSCENC =       160.27286088
  Ewald energy   TEWEN  =     -2869.94819322
  -Hartree energ DENC   =     -1860.42847430
  -exchange      EXHF   =         0.00000000
  -V(xc)+E(xc)   XCENC  =       181.83560746
  PAW double counting   =      5164.00739790    -5119.20355807
  entropy T*S    EENTRO =        -0.00008474
  eigenvalues    EBANDS =      -531.51227352
  atomic energy  EATOM  =      4831.84262874
  Solvation  Ediel_sol  =         0.00000000
  ---------------------------------------------------
  free energy    TOTEN  =       -43.13408886 eV

  energy without entropy =      -43.13400412  energy(sigma->0) =      -43.13404649


--------------------------------------------------------------------------------------------------------




--------------------------------------- Iteration      1(   8)  ---------------------------------------


    POTLOK:  cpu time    0.0552: real time    0.0587
    SETDIJ:  cpu time    0.0053: real time    0.0053
     EDDAV:  cpu time    0.3766: real time    0.3767
       DOS:  cpu time    0.0004: real time    0.0004
    CHARGE:  cpu time    0.0362: real time    0.0362
    MIXING:  cpu time    0.0014: real time    0.0014
    --------------------------------------------
      LOOP:  cpu time    0.4751: real time    0.4787

 eigenvalue-minimisations  :   416
 total energy-change (2. order) : 0.5519666E+00  (-0.2838941E+00)
 number of electron      51.9999989 magnetization 
 augmentation part        1.5325072 magnetization 

 Broyden mixing:
  rms(total) = 0.34303E+00    rms(broyden)= 0.34303E+00
  rms(prec ) = 0.35633E+00
  weight for this iteration     100.00

 eigenvalues of (default mixing * dielectric matrix)
  average eigenvalue GAMMA=   1.1828
  2.2214  0.7941  0.5329

 Free energy of the ion-electron system (eV)
  ---------------------------------------------------
  alpha Z        PSCENC =       160.27286088
  Ewald energy   TEWEN  =     -2869.94819322
  -Hartree energ DENC   =     -1841.08163584
  -exchange      EXHF   =         0.00000000
  -V(xc)+E(xc)   XCENC  =       181.41331550
  PAW double counting   =      5634.23790386    -5591.76008814
  entropy T*S    EENTRO =        -0.00000000
  eigenvalues    EBANDS =      -547.55891407
  atomic energy  EATOM  =      4831.84262874
  Solvation  Ediel_sol  =         0.00000000
  ---------------------------------------------------
  free energy    TOTEN  =       -42.58212229 eV

  energy without entropy =      -42.58212229  energy(sigma->0) =      -42.58212229


--------------------------------------------------------------------------------------------------------




--------------------------------------- Iteration      1(   9)  ---------------------------------------


    POTLOK:  cpu time    0.0551: real time    0.0592
    SETDIJ:  cpu time    0.0054: real time    0.0054
     EDDAV:  cpu time    0.3885: real time    0.3888
       DOS:  cpu time    0.0005: real time    0.0005
    CHARGE:  cpu time    0.0367: real time    0.0368
    MIXING:  cpu time    0.0016: real time    0.0016
    --------------------------------------------
      LOOP:  cpu time    0.4878: real time    0.4923

 eigenvalue-minimisations  :   424
 total energy-change (2. order) : 0.5115262E-02  (-0.3436998E-01)
 number of electron      51.9999989 magnetization 
 augmentation part        1.6056210 magnetization 

 Broyden mixing:
  rms(total) = 0.11568E+00    rms(broyden)= 0.11568E+00
  rms(prec ) = 0.12901E+00
  weight for this iteration     100.00

 eigenvalues of (default mixing * dielectric matrix)
  average eigenvalue GAMMA=   1.1288
  2.3563  1.0368  0.5610  0.5610

 Free energy of the ion-electron system (eV)
  ---------------------------------------------------
  alpha Z        PSCENC =       160.27286088
  Ewald energy   TEWEN  =     -2869.94819322
  -Hartree energ DENC   =     -1839.36205292
  -exchange      EXHF   =         0.00000000
  -V(xc)+E(xc)   XCENC  =       181.37082002
  PAW double counting   =      5859.40609249    -5817.47526512
  entropy T*S    EENTRO =        -0.00000001
  eigenvalues    EBANDS =      -548.68389788
  atomic energy  EATOM  =      4831.84262874
  Solvation  Ediel_sol  =         0.00000000
  ---------------------------------------------------
  free energy    TOTEN  =       -42.57700703 eV

  energy without entropy =      -42.57700702  energy(sigma->0) =      -42.57700702


--------------------------------------------------------------------------------------------------------




--------------------------------------- Iteration      1(  10)  ---------------------------------------


    POTLOK:  cpu time    0.0558: real time    0.0578
    SETDIJ:  cpu time    0.0054: real time    0.0054
     EDDAV:  cpu time    0.4303: real time    0.4304
       DOS:  cpu time    0.0004: real time    0.0004
    CHARGE:  cpu time    0.0362: real time    0.0362
    MIXING:  cpu time    0.0015: real time    0.0015
    --------------------------------------------
      LOOP:  cpu time    0.5297: real time    0.5317

 eigenvalue-minimisations  :   496
 total energy-change (2. order) : 0.6773885E-02  (-0.3337303E-02)
 number of electron      51.9999989 magnetization 
 augmentation part        1.5800395 magnetization 

 Broyden mixing:
  rms(total) = 0.55723E-01    rms(broyden)= 0.55723E-01
  rms(prec ) = 0.61420E-01
  weight for this iteration     100.00

 eigenvalues of (default mixing * dielectric matrix)
  average eigenvalue GAMMA=   1.1518
  2.2904  1.4211  0.8786  0.5845  0.5845

 Free energy of the ion-electron system (eV)
  ---------------------------------------------------
  alpha Z        PSCENC =       160.27286088
  Ewald energy   TEWEN  =     -2869.94819322
  -Hartree energ DENC   =     -1841.22130126
  -exchange      EXHF   =         0.00000000
  -V(xc)+E(xc)   XCENC  =       181.42825360
  PAW double counting   =      5919.18824257    -5877.21286073
  entropy T*S    EENTRO =        -0.00000001
  eigenvalues    EBANDS =      -546.91986371
  atomic energy  EATOM  =      4831.84262874
  Solvation  Ediel_sol  =         0.00000000
  ---------------------------------------------------
  free energy    TOTEN  =       -42.57023314 eV

  energy without entropy =      -42.57023313  energy(sigma->0) =      -42.57023314


--------------------------------------------------------------------------------------------------------




--------------------------------------- Iteration      1(  11)  ---------------------------------------


    POTLOK:  cpu time    0.0550: real time    0.0585
    SETDIJ:  cpu time    0.0054: real time    0.0054
     EDDAV:  cpu time    0.4013: real time    0.4013
       DOS:  cpu time    0.0004: real time    0.0004
    CHARGE:  cpu time    0.0360: real time    0.0360
    MIXING:  cpu time    0.0015: real time    0.0015
    --------------------------------------------
      LOOP:  cpu time    0.4996: real time    0.5031

 eigenvalue-minimisations  :   448
 total energy-change (2. order) : 0.1236504E-02  (-0.1055277E-02)
 number of electron      51.9999989 magnetization 
 augmentation part        1.5563862 magnetization 

 Broyden mixing:
  rms(total) = 0.20935E-01    rms(broyden)= 0.20935E-01
  rms(prec ) = 0.21748E-01
  weight for this iteration     100.00

 eigenvalues of (default mixing * dielectric matrix)
  average eigenvalue GAMMA=   1.2153
  2.3668  1.9037  1.1692  0.6856  0.5832  0.5832

 Free energy of the ion-electron system (eV)
  ---------------------------------------------------
  alpha Z        PSCENC =       160.27286088
  Ewald energy   TEWEN  =     -2869.94819322
  -Hartree energ DENC   =     -1842.52283936
  -exchange      EXHF   =         0.00000000
  -V(xc)+E(xc)   XCENC  =       181.47206766
  PAW double counting   =      5907.04237758    -5864.93914081
  entropy T*S    EENTRO =        -0.00000001
  eigenvalues    EBANDS =      -545.78875809
  atomic energy  EATOM  =      4831.84262874
  Solvation  Ediel_sol  =         0.00000000
  ---------------------------------------------------
  free energy    TOTEN  =       -42.56899664 eV

  energy without entropy =      -42.56899662  energy(sigma->0) =      -42.56899663


--------------------------------------------------------------------------------------------------------




--------------------------------------- Iteration      1(  12)  ---------------------------------------


    POTLOK:  cpu time    0.0550: real time    0.0585
    SETDIJ:  cpu time    0.0053: real time    0.0053
     EDDAV:  cpu time    0.4168: real time    0.4169
       DOS:  cpu time    0.0004: real time    0.0004
    CHARGE:  cpu time    0.0360: real time    0.0360
    MIXING:  cpu time    0.0016: real time    0.0016
    --------------------------------------------
      LOOP:  cpu time    0.5151: real time    0.5186

 eigenvalue-minimisations  :   472
 total energy-change (2. order) :-0.1582973E-03  (-0.6727330E-04)
 number of electron      51.9999989 magnetization 
 augmentation part        1.5588116 magnetization 

 Broyden mixing:
  rms(total) = 0.64267E-02    rms(broyden)= 0.64266E-02
  rms(prec ) = 0.71443E-02
  weight for this iteration     100.00

 eigenvalues of (default mixing * dielectric matrix)
  average eigenvalue GAMMA=   1.2282
  2.3327  2.3327  1.2591  0.7576  0.7576  0.5789  0.5789

 Free energy of the ion-electron system (eV)
  ---------------------------------------------------
  alpha Z        PSCENC =       160.27286088
  Ewald energy   TEWEN  =     -2869.94819322
  -Hartree energ DENC   =     -1842.71829093
  -exchange      EXHF   =         0.00000000
  -V(xc)+E(xc)   XCENC  =       181.48340427
  PAW double counting   =      5909.54521954    -5867.43786790
  entropy T*S    EENTRO =        -0.00000001
  eigenvalues    EBANDS =      -545.60891632
  atomic energy  EATOM  =      4831.84262874
  Solvation  Ediel_sol  =         0.00000000
  ---------------------------------------------------
  free energy    TOTEN  =       -42.56915493 eV

  energy without entropy =      -42.56915492  energy(sigma->0) =      -42.56915493


--------------------------------------------------------------------------------------------------------




--------------------------------------- Iteration      1(  13)  ---------------------------------------


    POTLOK:  cpu time    0.0549: real time    0.0588
    SETDIJ:  cpu time    0.0054: real time    0.0054
     EDDAV:  cpu time    0.4173: real time    0.4174
       DOS:  cpu time    0.0004: real time    0.0004
    CHARGE:  cpu time    0.0360: real time    0.0360
    MIXING:  cpu time    0.0016: real time    0.0016
    --------------------------------------------
      LOOP:  cpu time    0.5156: real time    0.5195

 eigenvalue-minimisations  :   472
 total energy-change (2. order) :-0.3088893E-04  (-0.1067063E-04)
 number of electron      51.9999989 magnetization 
 augmentation part        1.5587075 magnetization 

 Broyden mixing:
  rms(total) = 0.32708E-02    rms(broyden)= 0.32708E-02
  rms(prec ) = 0.36508E-02
  weight for this iteration     100.00

 eigenvalues of (default mixing * dielectric matrix)
  average eigenvalue GAMMA=   1.2277
  2.3805  2.3805  1.3017  0.9377  0.9377  0.5901  0.5901  0.7032

 Free energy of the ion-electron system (eV)
  ---------------------------------------------------
  alpha Z        PSCENC =       160.27286088
  Ewald energy   TEWEN  =     -2869.94819322
  -Hartree energ DENC   =     -1842.88125791
  -exchange      EXHF   =         0.00000000
  -V(xc)+E(xc)   XCENC  =       181.48755665
  PAW double counting   =      5905.13875961    -5863.02224001
  entropy T*S    EENTRO =        -0.00000001
  eigenvalues    EBANDS =      -545.45930055
  atomic energy  EATOM  =      4831.84262874
  Solvation  Ediel_sol  =         0.00000000
  ---------------------------------------------------
  free energy    TOTEN  =       -42.56918582 eV

  energy without entropy =      -42.56918581  energy(sigma->0) =      -42.56918582


--------------------------------------------------------------------------------------------------------




--------------------------------------- Iteration      1(  14)  ---------------------------------------


    POTLOK:  cpu time    0.0551: real time    0.0588
    SETDIJ:  cpu time    0.0054: real time    0.0054
     EDDAV:  cpu time    0.4162: real time    0.4162
       DOS:  cpu time    0.0004: real time    0.0004
    CHARGE:  cpu time    0.0359: real time    0.0360
    MIXING:  cpu time    0.0017: real time    0.0017
    --------------------------------------------
      LOOP:  cpu time    0.5147: real time    0.5185

 eigenvalue-minimisations  :   472
 total energy-change (2. order) :-0.1653017E-04  (-0.3424655E-05)
 number of electron      51.9999989 magnetization 
 augmentation part        1.5589140 magnetization 

 Broyden mixing:
  rms(total) = 0.17421E-02    rms(broyden)= 0.17421E-02
  rms(prec ) = 0.18984E-02
  weight for this iteration     100.00

 eigenvalues of (default mixing * dielectric matrix)
  average eigenvalue GAMMA=   1.2689
  2.4614  2.4614  1.4055  1.4055  1.0081  0.5840  0.5840  0.7553  0.7553

 Free energy of the ion-electron system (eV)
  ---------------------------------------------------
  alpha Z        PSCENC =       160.27286088
  Ewald energy   TEWEN  =     -2869.94819322
  -Hartree energ DENC   =     -1842.94836952
  -exchange      EXHF   =         0.00000000
  -V(xc)+E(xc)   XCENC  =       181.48921594
  PAW double counting   =      5903.63112974    -5861.51360182
  entropy T*S    EENTRO =        -0.00000001
  eigenvalues    EBANDS =      -545.39487309
  atomic energy  EATOM  =      4831.84262874
  Solvation  Ediel_sol  =         0.00000000
  ---------------------------------------------------
  free energy    TOTEN  =       -42.56920235 eV

  energy without entropy =      -42.56920234  energy(sigma->0) =      -42.56920235


--------------------------------------------------------------------------------------------------------




--------------------------------------- Iteration      1(  15)  ---------------------------------------


    POTLOK:  cpu time    0.0551: real time    0.0590
    SETDIJ:  cpu time    0.0054: real time    0.0054
     EDDAV:  cpu time    0.3502: real time    0.3502
       DOS:  cpu time    0.0004: real time    0.0004
    CHARGE:  cpu time    0.0359: real time    0.0360
    MIXING:  cpu time    0.0018: real time    0.0018
    --------------------------------------------
      LOOP:  cpu time    0.4487: real time    0.4526

 eigenvalue-minimisations  :   368
 total energy-change (2. order) :-0.1114521E-04  (-0.1141339E-05)
 number of electron      51.9999989 magnetization 
 augmentation part        1.5591876 magnetization 

 Broyden mixing:
  rms(total) = 0.62950E-03    rms(broyden)= 0.62949E-03
  rms(prec ) = 0.69075E-03
  weight for this iteration     100.00

 eigenvalues of (default mixing * dielectric matrix)
  average eigenvalue GAMMA=   1.3068
  2.6782  2.1616  2.1616  1.3916  0.9671  0.9671  0.5850  0.5850  0.7853  0.7853

 Free energy of the ion-electron system (eV)
  ---------------------------------------------------
  alpha Z        PSCENC =       160.27286088
  Ewald energy   TEWEN  =     -2869.94819322
  -Hartree energ DENC   =     -1842.98956236
  -exchange      EXHF   =         0.00000000
  -V(xc)+E(xc)   XCENC  =       181.49081975
  PAW double counting   =      5903.02557266    -5860.90783579
  entropy T*S    EENTRO =        -0.00000001
  eigenvalues    EBANDS =      -545.35550416
  atomic energy  EATOM  =      4831.84262874
  Solvation  Ediel_sol  =         0.00000000
  ---------------------------------------------------
  free energy    TOTEN  =       -42.56921350 eV

  energy without entropy =      -42.56921348  energy(sigma->0) =      -42.56921349


--------------------------------------------------------------------------------------------------------




--------------------------------------- Iteration      1(  16)  ---------------------------------------


    POTLOK:  cpu time    0.0551: real time    0.0586
    SETDIJ:  cpu time    0.0054: real time    0.0054
     EDDAV:  cpu time    0.3568: real time    0.3569
       DOS:  cpu time    0.0004: real time    0.0004
    CHARGE:  cpu time    0.0362: real time    0.0362
    MIXING:  cpu time    0.0018: real time    0.0018
    --------------------------------------------
      LOOP:  cpu time    0.4557: real time    0.4592

 eigenvalue-minimisations  :   376
 total energy-change (2. order) :-0.2000795E-05  (-0.1543635E-06)
 number of electron      51.9999989 magnetization 
 augmentation part        1.5591967 magnetization 

 Broyden mixing:
  rms(total) = 0.24541E-03    rms(broyden)= 0.24540E-03
  rms(prec ) = 0.28174E-03
  weight for this iteration     100.00

 eigenvalues of (default mixing * dielectric matrix)
  average eigenvalue GAMMA=   1.3378
  2.8281  2.1092  2.1092  1.7795  1.0979  1.0340  1.0340  0.5848  0.5848  0.7770
  0.7770

 Free energy of the ion-electron system (eV)
  ---------------------------------------------------
  alpha Z        PSCENC =       160.27286088
  Ewald energy   TEWEN  =     -2869.94819322
  -Hartree energ DENC   =     -1843.00242627
  -exchange      EXHF   =         0.00000000
  -V(xc)+E(xc)   XCENC  =       181.49136778
  PAW double counting   =      5902.95919352    -5860.84150763
  entropy T*S    EENTRO =        -0.00000001
  eigenvalues    EBANDS =      -545.34313929
  atomic energy  EATOM  =      4831.84262874
  Solvation  Ediel_sol  =         0.00000000
  ---------------------------------------------------
  free energy    TOTEN  =       -42.56921550 eV

  energy without entropy =      -42.56921549  energy(sigma->0) =      -42.56921549


--------------------------------------------------------------------------------------------------------




--------------------------------------- Iteration      1(  17)  ---------------------------------------


    POTLOK:  cpu time    0.0550: real time    0.0589
    SETDIJ:  cpu time    0.0054: real time    0.0053
     EDDAV:  cpu time    0.2885: real time    0.2885
       DOS:  cpu time    0.0004: real time    0.0004
    --------------------------------------------
      LOOP:  cpu time    0.3491: real time    0.3532

 eigenvalue-minimisations  :   272
 total energy-change (2. order) :-0.4523436E-06  (-0.4497814E-07)
 number of electron      51.9999989 magnetization 
 augmentation part        1.5591967 magnetization 

 Free energy of the ion-electron system (eV)
  ---------------------------------------------------
  alpha Z        PSCENC =       160.27286088
  Ewald energy   TEWEN  =     -2869.94819322
  -Hartree energ DENC   =     -1843.00711932
  -exchange      EXHF   =         0.00000000
  -V(xc)+E(xc)   XCENC  =       181.49167978
  PAW double counting   =      5902.96648403    -5860.84883191
  entropy T*S    EENTRO =        -0.00000001
  eigenvalues    EBANDS =      -545.33872492
  atomic energy  EATOM  =      4831.84262874
  Solvation  Ediel_sol  =         0.00000000
  ---------------------------------------------------
  free energy    TOTEN  =       -42.56921595 eV

  energy without entropy =      -42.56921594  energy(sigma->0) =      -42.56921594


--------------------------------------------------------------------------------------------------------




 average (electrostatic) potential at core
  the test charge radii are     1.0818  0.9698
  (the norm of the test charge is              1.0000)
       1 -75.7198       2 -75.9395       3 -85.6392       4 -85.7779       5 -85.6493
       6 -85.6400
 
 
 
 E-fermi :   6.3375     XC(G=0): -10.1765     alpha+bet :-12.2268

 Fermi energy:         6.3375132851

 k-point     1 :       0.2500    0.2500    0.0000
  band No.  band energies     occupation 
      1     -55.1481      2.00000
      2     -54.9682      2.00000
      3     -29.3842      2.00000
      4     -29.2977      2.00000
      5     -29.2855      2.00000
      6     -29.2439      2.00000
      7     -29.1575      2.00000
      8     -29.0441      2.00000
      9      -6.5828      2.00000
     10      -6.5043      2.00000
     11      -6.3566      2.00000
     12      -6.2765      2.00000
     13       0.5912      2.00000
     14       0.7204      2.00000
     15       0.7972      2.00000
     16       0.9093      2.00000
     17       1.9061      2.00000
     18       2.0574      2.00000
     19       2.3528      2.00000
     20       2.4127      2.00000
     21       2.6017      2.00000
     22       2.8057      2.00000
     23       3.9083      2.00000
     24       4.0208      2.00000
     25       5.1945      2.00000
     26       6.1532      2.00000
     27       7.2559      0.00000
     28       7.8127      0.00000
     29       8.3560      0.00000
     30       8.5497      0.00000
     31       8.7165      0.00000
     32       8.8628      0.00000

 k-point     2 :      -0.2500    0.5000    0.0000
  band No.  band energies     occupation 
      1     -55.1481      2.00000
      2     -54.9673      2.00000
      3     -29.3853      2.00000
      4     -29.3430      2.00000
      5     -29.2977      2.00000
      6     -29.2428      2.00000
      7     -29.1493      2.00000
      8     -29.0055      2.00000
      9      -6.6070      2.00000
     10      -6.5693      2.00000
     11      -6.3388      2.00000
     12      -6.2813      2.00000
     13       0.5592      2.00000
     14       0.6418      2.00000
     15       0.8032      2.00000
     16       1.4522      2.00000
     17       1.8981      2.00000
     18       2.0609      2.00000
     19       2.2495      2.00000
     20       2.5262      2.00000
     21       2.7734      2.00000
     22       2.9916      2.00000
     23       3.4656      2.00000
     24       4.0265      2.00000
     25       5.1952      2.00000
     26       6.1345      2.00000
     27       7.2000      0.00000
     28       7.7947      0.00000
     29       8.1632      0.00000
     30       8.3277      0.00000
     31       8.5607      0.00000
     32       8.7814      0.00000

 k-point     3 :       0.5000    0.2500    0.0000
  band No.  band energies     occupation 
      1     -55.1481      2.00000
      2     -54.9681      2.00000
      3     -29.3840      2.00000
      4     -29.3165      2.00000
      5     -29.2977      2.00000
      6     -29.2441      2.00000
      7     -29.1206      2.00000
      8     -29.0500      2.00000
      9      -6.5796      2.00000
     10      -6.4946      2.00000
     11      -6.3566      2.00000
     12      -6.2891      2.00000
     13       0.5590      2.00000
     14       0.6261      2.00000
     15       0.8023      2.00000
     16       0.9710      2.00000
     17       1.9181      2.00000
     18       2.0942      2.00000
     19       2.2928      2.00000
     20       2.5094      2.00000
     21       2.6841      2.00000
     22       2.8138      2.00000
     23       3.8474      2.00000
     24       4.0178      2.00000
     25       5.1951      2.00000
     26       6.0057      2.00000
     27       7.3256      0.00000
     28       7.8195      0.00000
     29       8.3645      0.00000
     30       8.5242      0.00000
     31       8.7048      0.00000
     32       8.8646      0.00000

 k-point     4 :      -0.2500    0.2500    0.0000
  band No.  band energies     occupation 
      1     -55.1660      2.00000
      2     -54.9854      2.00000
      3     -29.3335      2.00000
      4     -29.3087      2.00000
      5     -29.2742      2.00000
      6     -29.1339      2.00000
      7     -29.0893      2.00000
      8     -28.9133      2.00000
      9      -7.5798      2.00000
     10      -7.3977      2.00000
     11      -6.9238      2.00000
     12      -6.7409      2.00000
     13       0.6395      2.00000
     14       1.2293      2.00000
     15       1.4664      2.00000
     16       1.8853      2.00000
     17       1.9742      2.00000
     18       2.1519      2.00000
     19       3.2028      2.00000
     20       3.4766      2.00000
     21       3.8924      2.00000
     22       3.9201      2.00000
     23       4.3121      2.00000
     24       4.5142      2.00000
     25       4.9721      2.00000
     26       5.8467      2.00000
     27       6.5215      0.00000
     28       7.5256      0.00000
     29       8.0304      0.00000
     30       8.0475      0.00000
     31       8.5599      0.00000
     32       8.9936      0.00000

 k-point     5 :      -0.2500    0.0000    0.0000
  band No.  band energies     occupation 
      1     -55.1660      2.00000
      2     -54.9862      2.00000
      3     -29.3335      2.00000
      4     -29.2928      2.00000
      5     -29.2731      2.00000
      6     -29.1350      2.00000
      7     -29.0319      2.00000
      8     -28.9749      2.00000
      9      -7.6081      2.00000
     10      -7.5107      2.00000
     11      -6.8053      2.00000
     12      -6.6521      2.00000
     13       0.5400      2.00000
     14       0.9181      2.00000
     15       1.8009      2.00000
     16       1.9216      2.00000
     17       2.1342      2.00000
     18       2.3110      2.00000
     19       2.6132      2.00000
     20       3.2028      2.00000
     21       3.9015      2.00000
     22       3.9132      2.00000
     23       4.4666      2.00000
     24       4.6056      2.00000
     25       4.9620      2.00000
     26       5.6506      2.00000
     27       6.7968      0.00000
     28       7.4201      0.00000
     29       7.8831      0.00000
     30       8.0340      0.00000
     31       8.5497      0.00000
     32       8.9943      0.00000

 k-point     6 :       0.0000   -0.2500    0.0000
  band No.  band energies     occupation 
      1     -55.1660      2.00000
      2     -54.9854      2.00000
      3     -29.3335      2.00000
      4     -29.2963      2.00000
      5     -29.2744      2.00000
      6     -29.1337      2.00000
      7     -29.0905      2.00000
      8     -28.9245      2.00000
      9      -7.5811      2.00000
     10      -7.4140      2.00000
     11      -6.9067      2.00000
     12      -6.7378      2.00000
     13       0.6335      2.00000
     14       1.2046      2.00000
     15       1.5081      2.00000
     16       1.8827      2.00000
     17       2.0848      2.00000
     18       2.1638      2.00000
     19       3.2014      2.00000
     20       3.2681      2.00000
     21       3.7939      2.00000
     22       3.9128      2.00000
     23       4.2800      2.00000
     24       4.5741      2.00000
     25       4.9708      2.00000
     26       5.8280      2.00000
     27       6.8622      0.00000
     28       7.4979      0.00000
     29       8.0275      0.00000
     30       8.0370      0.00000
     31       8.5613      0.00000
     32       8.8713      0.00000


--------------------------------------------------------------------------------------------------------


 soft charge-density along one line, spin component           1
         0         1         2         3         4         5         6         7         8         9
 total charge-density along one line
 
 pseudopotential strength for first ion, spin component:           1
 -5.058  11.403  -0.008  -0.014   0.009   0.003   0.023  -0.016
 11.403   3.269   0.001   0.018  -0.012   0.000  -0.006   0.005
 -0.008   0.001 -18.081   0.013   0.006   8.918  -0.015  -0.003
 -0.014   0.018   0.013 -18.099  -0.007  -0.015   8.939   0.007
  0.009  -0.012   0.006  -0.007 -18.074  -0.003   0.007   8.907
  0.003   0.000   8.918  -0.015  -0.003   5.753   0.007   0.002
  0.023  -0.006  -0.015   8.939   0.007   0.007   5.740  -0.004
 -0.016   0.005  -0.003   0.007   8.907   0.002  -0.004   5.758
  0.006  -0.001   0.013  -0.006   0.001  -0.009   0.003  -0.001
  0.016  -0.010  -0.020   0.001  -0.006   0.014  -0.001   0.003
 -0.015   0.009   0.006  -0.022  -0.004  -0.003   0.015   0.004
 -0.008   0.004  -0.006   0.015  -0.014   0.003  -0.010   0.011
  0.005  -0.004   0.011   0.003   0.009  -0.005  -0.001  -0.007
  0.006  -0.001   0.013  -0.006   0.001  -0.010   0.003  -0.001
  0.016  -0.010  -0.020   0.001  -0.006   0.014  -0.001   0.003
 -0.015   0.009   0.007  -0.023  -0.004  -0.003   0.016   0.004
 -0.009   0.004  -0.006   0.016  -0.014   0.003  -0.011   0.011
  0.005  -0.004   0.012   0.003   0.009  -0.005  -0.001  -0.007
 total augmentation occupancy for first ion, spin component:           1
  1.996  -0.036   0.000   0.000   0.000  -0.000   0.000   0.001  -0.023  -0.009   0.016   0.027  -0.001   0.021   0.007  -0.015
 -0.036   1.289   0.005   0.002   0.002  -0.033   0.019  -0.017  -0.520   0.314  -0.377   0.193   0.284   0.525  -0.353   0.469
  0.000   0.005   1.999  -0.000   0.000  -0.040   0.001  -0.002  -0.009   0.000   0.004  -0.016  -0.010   0.010  -0.002  -0.001
  0.000   0.002  -0.000   1.999   0.000   0.001  -0.046  -0.000  -0.014   0.039   0.006  -0.001   0.009   0.002  -0.031  -0.012
  0.000   0.002   0.000   0.000   1.998  -0.002   0.000  -0.037   0.017  -0.014   0.015   0.020  -0.019  -0.009   0.006  -0.012
 -0.000  -0.033  -0.040   0.001  -0.002   0.098  -0.014   0.013   0.023  -0.060   0.036  -0.124   0.055  -0.036   0.079  -0.046
  0.000   0.019   0.001  -0.046   0.000  -0.014   0.129  -0.006  -0.144   0.107  -0.088   0.067   0.079   0.176  -0.130   0.121
  0.001  -0.017  -0.002  -0.000  -0.037   0.013  -0.006   0.080   0.126  -0.130   0.026   0.079   0.011  -0.146   0.153  -0.031
 -0.023  -0.520  -0.009  -0.014   0.017   0.023  -0.144   0.126   2.867  -0.413   0.137   0.465  -0.258  -3.106   0.414  -0.169
 -0.009   0.314   0.000   0.039  -0.014  -0.060   0.107  -0.130  -0.413   5.330  -0.636   1.473   0.913   0.412  -6.333   0.742
  0.016  -0.377   0.004   0.006   0.015   0.036  -0.088   0.026   0.137  -0.636   2.380  -0.322  -0.149  -0.169   0.747  -2.645
  0.027   0.193  -0.016  -0.001   0.020  -0.124   0.067   0.079   0.465   1.473  -0.322   3.583   0.028  -0.631  -1.778   0.444
 -0.001   0.284  -0.010   0.009  -0.019   0.055   0.079   0.011  -0.258   0.913  -0.149   0.028   2.586   0.385  -1.320   0.093
  0.021   0.525   0.010   0.002  -0.009  -0.036   0.176  -0.146  -3.106   0.412  -0.169  -0.631   0.385   4.135  -0.471   0.198
  0.007  -0.353  -0.002  -0.031   0.006   0.079  -0.130   0.153   0.414  -6.333   0.747  -1.778  -1.320  -0.471   8.006  -0.856
 -0.015   0.469  -0.001  -0.012  -0.012  -0.046   0.121  -0.031  -0.169   0.742  -2.645   0.444   0.093   0.198  -0.856   3.712
 -0.024  -0.237   0.007   0.006  -0.010   0.149  -0.095  -0.091  -0.629  -1.779   0.447  -4.316   0.015   0.764   2.070  -0.527
  0.001  -0.289   0.016  -0.003   0.018  -0.077  -0.092  -0.015   0.388  -1.322   0.099   0.012  -2.649  -0.432   1.614  -0.092


------------------------ aborting loop because EDIFF is reached ----------------------------------------


    CHARGE:  cpu time    0.0361: real time    0.0361
    FORLOC:  cpu time    0.0069: real time    0.0069
    FORNL :  cpu time    0.0745: real time    0.0746
    STRESS:  cpu time    0.1530: real time    0.1533
    FORCOR:  cpu time    0.0597: real time    0.0599
    FORHAR:  cpu time    0.0146: real time    0.0146
    MIXING:  cpu time    0.0019: real time    0.0019
    OFIELD:  cpu time    0.0000: real time    0.0000

 ---------------------------------------------------------------------------------------------

         DFTD3 V3.0 Rev 1        
 IVDW         = 12
 DF pbe       
 parameters
 VDW_S6       =    1.0000
 VDW_S8       =    0.7875
 VDW_A1       =    0.4289
 VDW_A2       =    4.4407
 k1-k3        =   16.0000    1.3333   -4.0000
 VDW_RADIUS   =   50.2022 A
 VDW_CNRADIUS =   21.1671 A
 Edisp (eV)   -2.31094

 E6    (eV) :    -1.3760
 E8    (eV) :    -0.9349
 % E8        : 40.46
    FORVDW:  cpu time    0.0381: real time    0.0382

  FORCE on cell =-STRESS in cart. coord.  units (eV):
  Direction    XX          YY          ZZ          XY          YZ          ZX
  --------------------------------------------------------------------------------------
  Alpha Z   160.27286   160.27286   160.27286
  Ewald    -127.81478   -50.71599 -2691.42021    68.33979   -30.96192   -15.69742
  Hartree  1327.80908  1356.12689  -840.92484    26.10996    -8.35054    -4.54860
  E(xc)    -219.24642  -219.13321  -219.48846     0.12891    -0.04083    -0.03458
  Local   -2208.48459 -2312.96359  2520.95090   -94.50749    36.52461    21.98333
  n-local   236.04520   239.53018   250.00818     2.43200    -1.99214    -1.66427
  augment    -0.70609    -1.46179    -4.42334    -0.21721     0.57166     0.14632
  Kinetic   832.26338   830.01310   825.94732    -2.04725     2.34313    -2.13590
  Fock        0.00000     0.00000     0.00000     0.00000     0.00000     0.00000
  vdW        -2.36897    -2.38425    -2.20510    -0.01106     0.00319     0.00960
  -------------------------------------------------------------------------------------
  Total      -2.23032    -0.71580    -1.28271     0.22766    -1.90283    -1.94150
  in kB     -30.26611    -9.71363   -17.40668     3.08942   -25.82199   -26.34674
  external pressure =      -19.13 kB  Pullay stress =        0.00 kB


 VOLUME and BASIS-vectors are now :
 -----------------------------------------------------------------------------
  energy-cutoff  :      500.00
  volume of cell :      118.07
      direct lattice vectors                 reciprocal lattice vectors
     1.596118927 -2.764559076  0.000000000     0.313259865 -0.180860668  0.000000000
     1.596118927  2.764559076  0.000000000     0.313259865  0.180860668  0.000000000
     0.000000000  0.000000000 13.378293991     0.000000000  0.000000000  0.074747946

  length of vectors
     3.192237854  3.192237854 13.378293991     0.361721335  0.361721335  0.074747946


 FORCES acting on ions
    electron-ion (+dipol)            ewald-force                    non-local-force                 convergence-correction
 -----------------------------------------------------------------------------------------------
   -.101E+02 -.195E+02 0.153E+02   0.112E+02 0.185E+02 -.178E+02   0.895E+00 0.879E+00 -.264E+00   0.663E-04 -.190E-04 0.418E-02
   0.250E-01 -.617E-02 -.109E+02   -.294E-01 0.108E-01 0.109E+02   -.582E-02 0.376E-02 0.244E-01   0.568E-05 0.464E-05 -.212E-02
   -.658E-01 -.137E+00 0.410E+03   0.812E-01 0.134E+00 -.414E+03   -.107E-01 0.523E-02 0.511E+01   -.154E-05 0.391E-05 0.732E-03
   0.102E+02 0.201E+02 -.407E+03   -.104E+02 -.190E+02 0.410E+03   -.135E+01 -.170E+01 -.120E+01   0.947E-05 0.811E-04 0.245E-02
   0.248E-01 -.178E-01 -.419E+03   0.111E-03 0.183E-03 0.424E+03   -.134E-01 0.104E-01 -.502E+01   -.730E-05 0.756E-06 -.195E-02
   0.784E+00 -.311E+00 0.409E+03   -.801E+00 0.294E+00 -.413E+03   -.387E+00 0.658E+00 0.433E+01   -.798E-04 0.628E-04 -.863E-03
 -----------------------------------------------------------------------------------------------
   0.873E+00 0.146E+00 -.300E+01   -.274E-13 0.977E-14 0.568E-13   -.873E+00 -.146E+00 0.299E+01   -.717E-05 0.134E-03 0.244E-02
 
 
 POSITION                                       TOTAL-FORCE (eV/Angst)
 -----------------------------------------------------------------------------------
      1.59612     -0.92152      3.34457         1.977482     -0.077332     -2.816432
      1.59612      0.92152     10.03372        -0.010214      0.008387      0.009285
      1.59612     -0.92152      8.46956         0.004905      0.002790      0.319762
      2.47117      0.61447      4.99334        -1.577188     -0.567458      1.840625
      1.59612     -0.92152     11.59788         0.011467     -0.007281     -0.313439
      1.59612      0.92152      1.78041        -0.406453      0.640895      0.960199
 -----------------------------------------------------------------------------------
    total drift:                                0.000076      0.000028      0.000092


--------------------------------------------------------------------------------------------------------



  FREE ENERGIE OF THE ION-ELECTRON SYSTEM (eV)
  ---------------------------------------------------
  free  energy   TOTEN  =       -44.88015101 eV

  energy  without entropy=      -44.88015100  energy(sigma->0) =      -44.88015101
 


--------------------------------------------------------------------------------------------------------


    POTLOK:  cpu time    0.0604: real time    0.0604


--------------------------------------------------------------------------------------------------------


 stress matrix after NEB project (eV)
     -2.23032      0.22766     -1.94150
      0.22766     -0.71580     -1.90283
     -1.94150     -1.90283     -1.28271
  FORCES: max atom, RMS     3.442195    1.814067
  FORCE total and by dimension    4.443539    2.816432
  Stress total and by dimension    4.692136    2.230323
 writing wavefunctions
     LOOP+:  cpu time    9.1246: real time    9.1972
    4ORBIT:  cpu time    0.0000: real time    0.0000

 total amount of memory used by VASP MPI-rank0    38677. kBytes
=======================================================================

   base      :      30000. kBytes
   nonl-proj :       1371. kBytes
   fftplans  :       2330. kBytes
   grid      :       3750. kBytes
   one-center:         31. kBytes
   wavefun   :       1195. kBytes
 
  
  
 General timing and accounting informations for this job:
 ========================================================
  
                  Total CPU time used (sec):       10.737
                            User time (sec):        9.862
                          System time (sec):        0.876
                         Elapsed time (sec):       11.277
  
                   Maximum memory used (kb):      134540.
                   Average memory used (kb):          N/A
  
                          Minor page faults:        27587
                          Major page faults:            0
                 Voluntary context switches:          968
