 vasp.6.2.0 18Jan21 (build Jul 31 2023 14:19:35) complex                        
  
 executed on             LinuxIFC date 2025.09.17  12:09:20
 running on    8 total cores
 distrk:  each k-point on    8 cores,    1 groups
 distr:  one band on NCORE=   4 cores,    2 groups


--------------------------------------------------------------------------------------------------------


 INCAR:
   SYSTEM = MoS2_SinglePoint_vdW_Coulomb
   PREC = Accurate
   ENCUT = 500
   GGA = PE
   ALGO = Normal
   NELM = 100
   NELMIN = 5
   EDIFF = 1E-6
   ISMEAR = 0
   SIGMA = 0.05
   IBRION = -1
   NSW = 0
   IVDW = 12
   LREAL = .FALSE.
   LCHARG = .TRUE.
   LWAVE = .TRUE.
   NWRITE = 1
   NCORE = 4

 POTCAR:    PAW_PBE Mo_sv 02Feb2006               
 POTCAR:    PAW_PBE S 06Sep2000                   
 POTCAR:    PAW_PBE Mo_sv 02Feb2006               
  local pseudopotential read in
  partial core-charges read in
  partial kinetic energy density read in
  atomic valenz-charges read in
  non local Contribution for L=           0  read in
    real space projection operators read in
  non local Contribution for L=           0  read in
    real space projection operators read in
  non local Contribution for L=           1  read in
    real space projection operators read in
  non local Contribution for L=           1  read in
    real space projection operators read in
  non local Contribution for L=           2  read in
    real space projection operators read in
  non local Contribution for L=           2  read in
    real space projection operators read in
    PAW grid and wavefunctions read in
 
   number of l-projection  operators is LMAX  =           6
   number of lm-projection operators is LMMAX =          18
 
 POTCAR:    PAW_PBE S 06Sep2000                   
  local pseudopotential read in
  partial core-charges read in
  partial kinetic energy density read in
  atomic valenz-charges read in
  non local Contribution for L=           0  read in
    real space projection operators read in
  non local Contribution for L=           0  read in
    real space projection operators read in
  non local Contribution for L=           1  read in
    real space projection operators read in
  non local Contribution for L=           1  read in
    real space projection operators read in
    PAW grid and wavefunctions read in
 
   number of l-projection  operators is LMAX  =           4
   number of lm-projection operators is LMMAX =           8
 
  PAW_PBE Mo_sv 02Feb2006               :
 energy of atom  1       EATOM=-1862.2866
 kinetic energy error for atom=    0.0074 (will be added to EATOM!!)
  PAW_PBE S 06Sep2000                   :
 energy of atom  2       EATOM= -276.8230
 kinetic energy error for atom=    0.0020 (will be added to EATOM!!)
 
 
 POSCAR: Mo S
  positions in direct lattice
  No initial velocities read in
 exchange correlation table for  LEXCH =        8
   RHO(1)=    0.500       N(1)  =     2000
   RHO(2)=  100.500       N(2)  =     4000

 VTST: version 4.0, (05/15/20)

 CHAIN: initializing optimizer
 
 OPT: Using VASP Dynamics algorithm
 CHAIN: Read ICHAIN            0
 
 POSCAR: Mo S
  positions in direct lattice
  No initial velocities read in
 


--------------------------------------------------------------------------------------------------------


 ion  position               nearest neighbor table
   1  0.667  0.333  0.250-   4 2.42   6 2.42   4 2.42   6 2.42   4 2.42   6 2.42
   2  0.333  0.667  0.750-   5 2.42   5 2.42   5 2.42   3 3.09
   3  0.326  0.674  0.519-   4 2.04   2 3.09
   4  0.333  0.667  0.367-   3 2.04   1 2.42   1 2.42   1 2.42
   5  0.667  0.333  0.867-   2 2.42   2 2.42   2 2.42
   6  0.333  0.667  0.133-   1 2.42   1 2.42   1 2.42
 
  LATTYP: Found a hexagonal cell.
 ALAT       =     3.1922378540
 C/A-ratio  =     4.1908825730
  
  Lattice vectors:
  
 A1 = (   1.5961189270,  -2.7645590765,   0.0000000000)
 A2 = (   1.5961189270,   2.7645590765,   0.0000000000)
 A3 = (   0.0000000000,   0.0000000000,  13.3782939911)


Analysis of symmetry for initial positions (statically):
=====================================================================
 Subroutine PRICEL returns:
 Original cell was already a primitive cell.
 

 Routine SETGRP: Setting up the symmetry group for a 
 hexagonal supercell.


 Subroutine GETGRP returns: Found  2 space group operations
 (whereof  2 operations were pure point group operations)
 out of a pool of 24 trial point group operations.


The static configuration has the point symmetry C_1h.


Analysis of symmetry for dynamics (positions and initial velocities):
=====================================================================
 Subroutine PRICEL returns:
 Original cell was already a primitive cell.
 

 Routine SETGRP: Setting up the symmetry group for a 
 hexagonal supercell.


 Subroutine GETGRP returns: Found  2 space group operations
 (whereof  2 operations were pure point group operations)
 out of a pool of 24 trial point group operations.


The dynamic configuration has the point symmetry C_1h.


 Subroutine INISYM returns: Found  2 space group operations
 (whereof  2 operations are pure point group operations),
 and found     1 'primitive' translations


----------------------------------------------------------------------------------------

                                     Primitive cell                                     

  volume of cell :     118.0652

  direct lattice vectors                    reciprocal lattice vectors
     1.596118927 -2.764559076  0.000000000     0.313259865 -0.180860668  0.000000000
     1.596118927  2.764559076  0.000000000     0.313259865  0.180860668  0.000000000
     0.000000000  0.000000000 13.378293991     0.000000000  0.000000000  0.074747946

  length of vectors
     3.192237854  3.192237854 13.378293991     0.361721335  0.361721335  0.074747946

  position of ions in fractional coordinates (direct lattice)
     0.666666667  0.333333333  0.250000000
     0.333333333  0.666666667  0.750000000
     0.325749345  0.674250655  0.519358837
     0.333333333  0.666666667  0.366918000
     0.666666667  0.333333333  0.866918000
     0.333333333  0.666666667  0.133082000

  ion indices of the primitive-cell ions
   primitive index   ion index
                 1           1
                 2           2
                 3           3
                 4           4
                 5           5
                 6           6

----------------------------------------------------------------------------------------

 
 
 KPOINTS: K-Spacing Value to Generate K-Mesh: 0.15

Automatic generation of k-mesh.
 Grid dimensions read from file:
 generate k-points for:    2    2    1

 Generating k-lattice:

  Cartesian coordinates                     Fractional coordinates (reciprocal lattice)
     0.156629933 -0.090430334  0.000000000     0.500000000  0.000000000  0.000000000
     0.156629933  0.090430334  0.000000000     0.000000000  0.500000000  0.000000000
     0.000000000  0.000000000  0.074747946     0.000000000  0.000000000  1.000000000

  Length of vectors
     0.180860668  0.180860668  0.074747946

  Shift w.r.t. Gamma in fractional coordinates (k-lattice)
     0.500000000  0.500000000  0.000000000

 
 Subroutine IBZKPT returns following result:
 ===========================================
 
 Found      4 irreducible k-points:
 
 Following reciprocal coordinates:
            Coordinates               Weight
  0.250000  0.250000  0.000000      2.000000
 -0.250000  0.500000  0.000000      4.000000
 -0.250000  0.250000  0.000000      2.000000
 -0.250000  0.000000  0.000000      4.000000
 
 Following cartesian coordinates:
            Coordinates               Weight
  0.156630  0.000000  0.000000      2.000000
  0.078315  0.135646  0.000000      4.000000
  0.000000  0.090430  0.000000      2.000000
 -0.078315  0.045215  0.000000      4.000000
 


--------------------------------------------------------------------------------------------------------




 Dimension of arrays:
   k-points           NKPTS =      4   k-points in BZ     NKDIM =      4   number of bands    NBANDS=     32
   number of dos      NEDOS =    301   number of ions     NIONS =      6
   non local maximal  LDIM  =      6   non local SUM 2l+1 LMDIM =     18
   total plane-waves  NPLWV =  56448
   max r-space proj   IRMAX =      1   max aug-charges    IRDMAX=  21106
   dimension x,y,z NGX =    24 NGY =   24 NGZ =   98
   dimension x,y,z NGXF=    48 NGYF=   48 NGZF=  196
   support grid    NGXF=    48 NGYF=   48 NGZF=  196
   ions per type =               2   4
   NGX,Y,Z   is equivalent  to a cutoff of  12.50, 12.50, 12.18 a.u.
   NGXF,Y,Z  is equivalent  to a cutoff of  25.00, 25.00, 24.36 a.u.

 SYSTEM =  MoS2_SinglePoint_vdW_Coulomb           
 POSCAR =  Mo S                                    

 Startparameter for this run:
   NWRITE =      1    write-flag & timer
   PREC   = accura    normal or accurate (medium, high low for compatibility)
   ISTART =      0    job   : 0-new  1-cont  2-samecut
   ICHARG =      2    charge: 1-file 2-atom 10-const
   ISPIN  =      1    spin polarized calculation?
   LNONCOLLINEAR =      F non collinear calculations
   LSORBIT =      F    spin-orbit coupling
   INIWAV =      1    electr: 0-lowe 1-rand  2-diag
   LASPH  =      F    aspherical Exc in radial PAW
   METAGGA=      F    non-selfconsistent MetaGGA calc.

 Electronic Relaxation 1
   ENCUT  =  500.0 eV  36.75 Ry    6.06 a.u.   5.82  5.82 24.39*2*pi/ulx,y,z
   ENINI  =  500.0     initial cutoff
   ENAUG  =  446.0 eV  augmentation charge cutoff
   NELM   =    100;   NELMIN=  5; NELMDL= -5     # of ELM steps 
   EDIFF  = 0.1E-05   stopping-criterion for ELM
   LREAL  =      F    real-space projection
   NLSPLINE    = F    spline interpolate recip. space projectors
   LCOMPAT=      F    compatible to vasp.4.4
   GGA_COMPAT  = T    GGA compatible to vasp.4.4-vasp.4.6
   LMAXPAW     = -100 max onsite density
   LMAXMIX     =    2 max onsite mixed and CHGCAR
   VOSKOWN=      0    Vosko Wilk Nusair interpolation
   ROPT   =    0.00000   0.00000
 Ionic relaxation
   EDIFFG = 0.1E-04   stopping-criterion for IOM
   NSW    =      0    number of steps for IOM
   NBLOCK =      1;   KBLOCK =      1    inner block; outer block 
   IBRION =     -1    ionic relax: 0-MD 1-quasi-New 2-CG
   NFREE  =      0    steps in history (QN), initial steepest desc. (CG)
   ISIF   =      2    stress and relaxation
   IWAVPR =     10    prediction:  0-non 1-charg 2-wave 3-comb
   ISYM   =      2    0-nonsym 1-usesym 2-fastsym
   LCORR  =      T    Harris-Foulkes like correction to forces

   POTIM  = 0.5000    time-step for ionic-motion
   TEIN   =    0.0    initial temperature
   TEBEG  =    0.0;   TEEND  =   0.0 temperature during run
   SMASS  =  -3.00    Nose mass-parameter (am)
   estimated Nose-frequenzy (Omega)   =  0.10E-29 period in steps = 0.13E+47 mass=  -0.233E-27a.u.
   SCALEE = 1.0000    scale energy and forces
   NPACO  =    256;   APACO  = 16.0  distance and # of slots for P.C.
   PSTRESS=    0.0 pullay stress

  Mass of Ions in am
   POMASS =  95.94 32.07
  Ionic Valenz
   ZVAL   =  14.00  6.00
  Atomic Wigner-Seitz radii
   RWIGS  =  -1.00 -1.00
  virtual crystal weights 
   VCA    =   1.00  1.00
   NELECT =      52.0000    total number of electrons
   NUPDOWN=      -1.0000    fix difference up-down

 DOS related values:
   EMIN   =  10.00;   EMAX   =-10.00  energy-range for DOS
   EFERMI =   0.00
   ISMEAR =     0;   SIGMA  =   0.05  broadening in eV -4-tet -1-fermi 0-gaus

 Electronic relaxation 2 (details)
   IALGO  =     38    algorithm
   LDIAG  =      T    sub-space diagonalisation (order eigenvalues)
   LSUBROT=      F    optimize rotation matrix (better conditioning)
   TURBO    =      0    0=normal 1=particle mesh
   IRESTART =      0    0=no restart 2=restart with 2 vectors
   NREBOOT  =      0    no. of reboots
   NMIN     =      0    reboot dimension
   EREF     =   0.00    reference energy to select bands
   IMIX   =      4    mixing-type and parameters
     AMIX     =   0.40;   BMIX     =  1.00
     AMIX_MAG =   1.60;   BMIX_MAG =  1.00
     AMIN     =   0.10
     WC   =   100.;   INIMIX=   1;  MIXPRE=   1;  MAXMIX= -45

 Intra band minimization:
   WEIMIN = 0.0000     energy-eigenvalue tresh-hold
   EBREAK =  0.78E-08  absolut break condition
   DEPER  =   0.30     relativ break condition  

   TIME   =   0.40     timestep for ELM

  volume/ion in A,a.u.               =      19.68       132.79
  Fermi-wavevector in a.u.,A,eV,Ry     =   1.245571  2.353789 21.108736  1.551448
  Thomas-Fermi vector in A             =   2.379788
 
 Write flags
   LWAVE        =      T    write WAVECAR
   LDOWNSAMPLE  =      F    k-point downsampling of WAVECAR
   LCHARG       =      T    write CHGCAR
   LVTOT        =      F    write LOCPOT, total local potential
   LVHAR        =      F    write LOCPOT, Hartree potential only
   LELF         =      F    write electronic localiz. function (ELF)
   LORBIT       =      0    0 simple, 1 ext, 2 COOP (PROOUT), +10 PAW based schemes


 Dipole corrections
   LMONO  =      F    monopole corrections only (constant potential shift)
   LDIPOL =      F    correct potential (dipole corrections)
   IDIPOL =      0    1-x, 2-y, 3-z, 4-all directions 
   EPSILON=  1.0000000 bulk dielectric constant

 Exchange correlation treatment:
   GGA     =    PE    GGA type
   LEXCH   =     8    internal setting for exchange type
   VOSKOWN=      0    Vosko Wilk Nusair interpolation
   LHFCALC =     F    Hartree Fock is set to
   LHFONE  =     F    Hartree Fock one center treatment
   AEXX    =    0.0000 exact exchange contribution

 Linear response parameters
   LEPSILON=     F    determine dielectric tensor
   LRPA    =     F    only Hartree local field effects (RPA)
   LNABLA  =     F    use nabla operator in PAW spheres
   LVEL    =     F    velocity operator in full k-point grid
   LINTERFAST=   F  fast interpolation
   KINTER  =     0    interpolate to denser k-point grid
   CSHIFT  =0.1000    complex shift for real part using Kramers Kronig
   OMEGAMAX=  -1.0    maximum frequency
   DEG_THRESHOLD= 0.2000000E-02 threshold for treating states as degnerate
   RTIME   =   -0.100 relaxation time in fs
  (WPLASMAI=    0.000 imaginary part of plasma frequency in eV, 0.658/RTIME)
   DFIELD  = 0.0000000 0.0000000 0.0000000 field for delta impulse in time
 
 Orbital magnetization related:
   ORBITALMAG=     F  switch on orbital magnetization
   LCHIMAG   =     F  perturbation theory with respect to B field
   DQ        =  0.001000  dq finite difference perturbation B field
   LLRAUG    =     F  two centre corrections for induced B field



--------------------------------------------------------------------------------------------------------


 Static calculation
 charge density and potential will be updated during run
 non-spin polarized calculation
 Variant of blocked Davidson
 Davidson routine will perform the subspace rotation
 perform sub-space diagonalisation
    after iterative eigenvector-optimisation
 modified Broyden-mixing scheme, WC =      100.0
 initial mixing is a Kerker type mixing with AMIX =  0.4000 and BMIX =      1.0000
 Hartree-type preconditioning will be used
 using additional bands            6
 reciprocal scheme for non local part
 use partial core corrections
 calculate Harris-corrections to forces 
   (improved forces if not selfconsistent)
 use gradient corrections 
 use of overlap-Matrix (Vanderbilt PP)
 Gauss-broadening in eV      SIGMA  =   0.05


--------------------------------------------------------------------------------------------------------


  energy-cutoff  :      500.00
  volume of cell :      118.07
      direct lattice vectors                 reciprocal lattice vectors
     1.596118927 -2.764559076  0.000000000     0.313259865 -0.180860668  0.000000000
     1.596118927  2.764559076  0.000000000     0.313259865  0.180860668  0.000000000
     0.000000000  0.000000000 13.378293991     0.000000000  0.000000000  0.074747946

  length of vectors
     3.192237854  3.192237854 13.378293991     0.361721335  0.361721335  0.074747946


 
 k-points in units of 2pi/SCALE and weight: K-Spacing Value to Generate K-Mesh: 0.15
   0.15662993  0.00000000  0.00000000       0.167
   0.07831497  0.13564550  0.00000000       0.333
   0.00000000  0.09043033  0.00000000       0.167
  -0.07831497  0.04521517  0.00000000       0.333
 
 k-points in reciprocal lattice and weights: K-Spacing Value to Generate K-Mesh: 0.15
   0.25000000  0.25000000  0.00000000       0.167
  -0.25000000  0.50000000  0.00000000       0.333
  -0.25000000  0.25000000  0.00000000       0.167
  -0.25000000  0.00000000  0.00000000       0.333
 
 position of ions in fractional coordinates (direct lattice) 
   0.66666667  0.33333333  0.25000000
   0.33333333  0.66666667  0.75000000
   0.32574935  0.67425065  0.51935884
   0.33333333  0.66666667  0.36691800
   0.66666667  0.33333333  0.86691800
   0.33333333  0.66666667  0.13308200
 
 position of ions in cartesian coordinates  (Angst):
   1.59611893 -0.92151969  3.34457350
   1.59611893  0.92151969 10.03372049
   1.59611893  0.96345246  6.94813521
   1.59611893  0.92151969  4.90873687
   1.59611893 -0.92151969 11.59788387
   1.59611893  0.92151969  1.78041012
 


--------------------------------------------------------------------------------------------------------


 k-point   1 :   0.2500 0.2500 0.0000  plane waves:    3020
 k-point   2 :  -0.2500 0.5000 0.0000  plane waves:    3020
 k-point   3 :  -0.2500 0.2500 0.0000  plane waves:    2992
 k-point   4 :  -0.2500 0.0000 0.0000  plane waves:    2992

 maximum and minimum number of plane-waves per node :       764      745

 maximum number of plane-waves:      3020
 maximum index in each direction: 
   IXMAX=    6   IYMAX=    5   IZMAX=   24
   IXMIN=   -6   IYMIN=   -6   IZMIN=  -24


 parallel 3D FFT for wavefunctions:
    minimum data exchange during FFTs selected (reduces bandwidth)
 parallel 3D FFT for charge:
    minimum data exchange during FFTs selected (reduces bandwidth)


 total amount of memory used by VASP MPI-rank0    37866. kBytes
=======================================================================

   base      :      30000. kBytes
   nonl-proj :        950. kBytes
   fftplans  :       2329. kBytes
   grid      :       3750. kBytes
   one-center:         31. kBytes
   wavefun   :        806. kBytes
 
     INWAV:  cpu time    0.0001: real time    0.0005
 Broyden mixing: mesh for mixing (old mesh)
   NGX = 11   NGY = 11   NGZ = 49
  (NGX  = 48   NGY  = 48   NGZ  =196)
  gives a total of   5929 points

 initial charge density was supplied:
 charge density of overlapping atoms calculated
 number of electron      52.0000000 magnetization 
 keeping initial charge density in first step


--------------------------------------------------------------------------------------------------------


 Maximum index for augmentation-charges         2591 (set IRDMAX)


--------------------------------------------------------------------------------------------------------


 First call to EWALD:  gamma=   0.361
 Maximum number of real-space cells 4x 4x 1
 Maximum number of reciprocal cells 2x 2x 7

    FEWALD:  cpu time    0.0020: real time    0.0020


--------------------------------------- Iteration      1(   1)  ---------------------------------------


    POTLOK:  cpu time    0.0559: real time    0.0583
    SETDIJ:  cpu time    0.0055: real time    0.0064
     EDDAV:  cpu time    0.2722: real time    0.3026
       DOS:  cpu time    0.0007: real time    0.0007
    --------------------------------------------
      LOOP:  cpu time    0.3344: real time    0.3680

 eigenvalue-minimisations  :   288
 total energy-change (2. order) : 0.4115185E+03  (-0.2897090E+04)
 number of electron      52.0000000 magnetization 
 augmentation part       52.0000000 magnetization 

 Free energy of the ion-electron system (eV)
  ---------------------------------------------------
  alpha Z        PSCENC =       160.27286088
  Ewald energy   TEWEN  =     -3047.38771260
  -Hartree energ DENC   =     -1706.80231911
  -exchange      EXHF   =         0.00000000
  -V(xc)+E(xc)   XCENC  =       182.00671563
  PAW double counting   =      3865.57804258    -3815.84821480
  entropy T*S    EENTRO =        -0.00940316
  eigenvalues    EBANDS =       -58.13414799
  atomic energy  EATOM  =      4831.84262874
  Solvation  Ediel_sol  =         0.00000000
  ---------------------------------------------------
  free energy    TOTEN  =       411.51845017 eV

  energy without entropy =      411.52785333  energy(sigma->0) =      411.52315175


--------------------------------------------------------------------------------------------------------




--------------------------------------- Iteration      1(   2)  ---------------------------------------


     EDDAV:  cpu time    0.2746: real time    0.2774
       DOS:  cpu time    0.0003: real time    0.0003
    --------------------------------------------
      LOOP:  cpu time    0.2749: real time    0.2777

 eigenvalue-minimisations  :   304
 total energy-change (2. order) :-0.4316880E+03  (-0.4212590E+03)
 number of electron      52.0000000 magnetization 
 augmentation part       52.0000000 magnetization 

 Free energy of the ion-electron system (eV)
  ---------------------------------------------------
  alpha Z        PSCENC =       160.27286088
  Ewald energy   TEWEN  =     -3047.38771260
  -Hartree energ DENC   =     -1706.80231911
  -exchange      EXHF   =         0.00000000
  -V(xc)+E(xc)   XCENC  =       182.00671563
  PAW double counting   =      3865.57804258    -3815.84821480
  entropy T*S    EENTRO =        -0.00000005
  eigenvalues    EBANDS =      -489.83157503
  atomic energy  EATOM  =      4831.84262874
  Solvation  Ediel_sol  =         0.00000000
  ---------------------------------------------------
  free energy    TOTEN  =       -20.16957376 eV

  energy without entropy =      -20.16957371  energy(sigma->0) =      -20.16957373


--------------------------------------------------------------------------------------------------------




--------------------------------------- Iteration      1(   3)  ---------------------------------------


     EDDAV:  cpu time    0.2960: real time    0.3018
       DOS:  cpu time    0.0002: real time    0.0002
    --------------------------------------------
      LOOP:  cpu time    0.2962: real time    0.3020

 eigenvalue-minimisations  :   336
 total energy-change (2. order) :-0.2162826E+02  (-0.2137095E+02)
 number of electron      52.0000000 magnetization 
 augmentation part       52.0000000 magnetization 

 Free energy of the ion-electron system (eV)
  ---------------------------------------------------
  alpha Z        PSCENC =       160.27286088
  Ewald energy   TEWEN  =     -3047.38771260
  -Hartree energ DENC   =     -1706.80231911
  -exchange      EXHF   =         0.00000000
  -V(xc)+E(xc)   XCENC  =       182.00671563
  PAW double counting   =      3865.57804258    -3815.84821480
  entropy T*S    EENTRO =        -0.00000000
  eigenvalues    EBANDS =      -511.45983468
  atomic energy  EATOM  =      4831.84262874
  Solvation  Ediel_sol  =         0.00000000
  ---------------------------------------------------
  free energy    TOTEN  =       -41.79783335 eV

  energy without entropy =      -41.79783335  energy(sigma->0) =      -41.79783335


--------------------------------------------------------------------------------------------------------




--------------------------------------- Iteration      1(   4)  ---------------------------------------


     EDDAV:  cpu time    0.2899: real time    0.2936
       DOS:  cpu time    0.0002: real time    0.0002
    --------------------------------------------
      LOOP:  cpu time    0.2901: real time    0.2938

 eigenvalue-minimisations  :   328
 total energy-change (2. order) :-0.5077442E+00  (-0.5058401E+00)
 number of electron      52.0000000 magnetization 
 augmentation part       52.0000000 magnetization 

 Free energy of the ion-electron system (eV)
  ---------------------------------------------------
  alpha Z        PSCENC =       160.27286088
  Ewald energy   TEWEN  =     -3047.38771260
  -Hartree energ DENC   =     -1706.80231911
  -exchange      EXHF   =         0.00000000
  -V(xc)+E(xc)   XCENC  =       182.00671563
  PAW double counting   =      3865.57804258    -3815.84821480
  entropy T*S    EENTRO =        -0.00000000
  eigenvalues    EBANDS =      -511.96757884
  atomic energy  EATOM  =      4831.84262874
  Solvation  Ediel_sol  =         0.00000000
  ---------------------------------------------------
  free energy    TOTEN  =       -42.30557752 eV

  energy without entropy =      -42.30557752  energy(sigma->0) =      -42.30557752


--------------------------------------------------------------------------------------------------------




--------------------------------------- Iteration      1(   5)  ---------------------------------------


     EDDAV:  cpu time    0.2997: real time    0.3028
       DOS:  cpu time    0.0002: real time    0.0002
    CHARGE:  cpu time    0.0326: real time    0.0327
    MIXING:  cpu time    0.0016: real time    0.0016
    --------------------------------------------
      LOOP:  cpu time    0.3342: real time    0.3372

 eigenvalue-minimisations  :   336
 total energy-change (2. order) :-0.1090561E-01  (-0.1089631E-01)
 number of electron      51.9999991 magnetization 
 augmentation part        0.8260305 magnetization 

 Broyden mixing:
  rms(total) = 0.28790E+01    rms(broyden)= 0.28790E+01
  rms(prec ) = 0.29960E+01
  weight for this iteration     100.00

 Free energy of the ion-electron system (eV)
  ---------------------------------------------------
  alpha Z        PSCENC =       160.27286088
  Ewald energy   TEWEN  =     -3047.38771260
  -Hartree energ DENC   =     -1706.80231911
  -exchange      EXHF   =         0.00000000
  -V(xc)+E(xc)   XCENC  =       182.00671563
  PAW double counting   =      3865.57804258    -3815.84821480
  entropy T*S    EENTRO =        -0.00000000
  eigenvalues    EBANDS =      -511.97848445
  atomic energy  EATOM  =      4831.84262874
  Solvation  Ediel_sol  =         0.00000000
  ---------------------------------------------------
  free energy    TOTEN  =       -42.31648313 eV

  energy without entropy =      -42.31648313  energy(sigma->0) =      -42.31648313


--------------------------------------------------------------------------------------------------------




--------------------------------------- Iteration      1(   6)  ---------------------------------------


    POTLOK:  cpu time    0.0556: real time    0.0580
    SETDIJ:  cpu time    0.0053: real time    0.0052
     EDDAV:  cpu time    0.2694: real time    0.2717
       DOS:  cpu time    0.0005: real time    0.0005
    CHARGE:  cpu time    0.0326: real time    0.0326
    MIXING:  cpu time    0.0015: real time    0.0015
    --------------------------------------------
      LOOP:  cpu time    0.3648: real time    0.3695

 eigenvalue-minimisations  :   296
 total energy-change (2. order) : 0.1441613E+01  (-0.2677034E+01)
 number of electron      51.9999988 magnetization 
 augmentation part        2.1237289 magnetization 

 Broyden mixing:
  rms(total) = 0.15286E+01    rms(broyden)= 0.15285E+01
  rms(prec ) = 0.17569E+01
  weight for this iteration     100.00

 eigenvalues of (default mixing * dielectric matrix)
  average eigenvalue GAMMA=   1.0937
  1.0937

 Free energy of the ion-electron system (eV)
  ---------------------------------------------------
  alpha Z        PSCENC =       160.27286088
  Ewald energy   TEWEN  =     -3047.38771260
  -Hartree energ DENC   =     -1647.64145771
  -exchange      EXHF   =         0.00000000
  -V(xc)+E(xc)   XCENC  =       180.32196967
  PAW double counting   =      4502.99841847    -4459.49055291
  entropy T*S    EENTRO =        -0.00924190
  eigenvalues    EBANDS =      -561.78178307
  atomic energy  EATOM  =      4831.84262874
  Solvation  Ediel_sol  =         0.00000000
  ---------------------------------------------------
  free energy    TOTEN  =       -40.87487043 eV

  energy without entropy =      -40.86562853  energy(sigma->0) =      -40.87024948


--------------------------------------------------------------------------------------------------------




--------------------------------------- Iteration      1(   7)  ---------------------------------------


    POTLOK:  cpu time    0.0551: real time    0.0582
    SETDIJ:  cpu time    0.0053: real time    0.0053
     EDDAV:  cpu time    0.2797: real time    0.2797
       DOS:  cpu time    0.0002: real time    0.0002
    CHARGE:  cpu time    0.0311: real time    0.0311
    MIXING:  cpu time    0.0014: real time    0.0014
    --------------------------------------------
      LOOP:  cpu time    0.3728: real time    0.3758

 eigenvalue-minimisations  :   312
 total energy-change (2. order) : 0.8231486E-01  (-0.2223644E+01)
 number of electron      51.9999990 magnetization 
 augmentation part        1.2141584 magnetization 

 Broyden mixing:
  rms(total) = 0.88488E+00    rms(broyden)= 0.88488E+00
  rms(prec ) = 0.11513E+01
  weight for this iteration     100.00

 eigenvalues of (default mixing * dielectric matrix)
  average eigenvalue GAMMA=   1.1580
  1.7649  0.5511

 Free energy of the ion-electron system (eV)
  ---------------------------------------------------
  alpha Z        PSCENC =       160.27286088
  Ewald energy   TEWEN  =     -3047.38771260
  -Hartree energ DENC   =     -1691.15505931
  -exchange      EXHF   =         0.00000000
  -V(xc)+E(xc)   XCENC  =       181.06244962
  PAW double counting   =      5060.01194582    -5014.23752719
  entropy T*S    EENTRO =        -0.00000000
  eigenvalues    EBANDS =      -521.20214153
  atomic energy  EATOM  =      4831.84262874
  Solvation  Ediel_sol  =         0.00000000
  ---------------------------------------------------
  free energy    TOTEN  =       -40.79255557 eV

  energy without entropy =      -40.79255557  energy(sigma->0) =      -40.79255557


--------------------------------------------------------------------------------------------------------




--------------------------------------- Iteration      1(   8)  ---------------------------------------


    POTLOK:  cpu time    0.0550: real time    0.0580
    SETDIJ:  cpu time    0.0052: real time    0.0052
     EDDAV:  cpu time    0.3250: real time    0.3274
       DOS:  cpu time    0.0005: real time    0.0005
    CHARGE:  cpu time    0.0317: real time    0.0317
    MIXING:  cpu time    0.0014: real time    0.0014
    --------------------------------------------
      LOOP:  cpu time    0.4189: real time    0.4242

 eigenvalue-minimisations  :   376
 total energy-change (2. order) : 0.1076226E+01  (-0.3598751E+00)
 number of electron      51.9999990 magnetization 
 augmentation part        1.4658254 magnetization 

 Broyden mixing:
  rms(total) = 0.38885E+00    rms(broyden)= 0.38885E+00
  rms(prec ) = 0.55534E+00
  weight for this iteration     100.00

 eigenvalues of (default mixing * dielectric matrix)
  average eigenvalue GAMMA=   1.0958
  2.0763  0.7180  0.4931

 Free energy of the ion-electron system (eV)
  ---------------------------------------------------
  alpha Z        PSCENC =       160.27286088
  Ewald energy   TEWEN  =     -3047.38771260
  -Hartree energ DENC   =     -1672.10255557
  -exchange      EXHF   =         0.00000000
  -V(xc)+E(xc)   XCENC  =       180.64766747
  PAW double counting   =      5535.36179120    -5491.51665642
  entropy T*S    EENTRO =        -0.00004777
  eigenvalues    EBANDS =      -536.83430560
  atomic energy  EATOM  =      4831.84262874
  Solvation  Ediel_sol  =         0.00000000
  ---------------------------------------------------
  free energy    TOTEN  =       -39.71632967 eV

  energy without entropy =      -39.71628190  energy(sigma->0) =      -39.71630578


--------------------------------------------------------------------------------------------------------




--------------------------------------- Iteration      1(   9)  ---------------------------------------


    POTLOK:  cpu time    0.0549: real time    0.0577
    SETDIJ:  cpu time    0.0052: real time    0.0052
     EDDAV:  cpu time    0.2917: real time    0.2918
       DOS:  cpu time    0.0005: real time    0.0005
    CHARGE:  cpu time    0.0324: real time    0.0324
    MIXING:  cpu time    0.0014: real time    0.0014
    --------------------------------------------
      LOOP:  cpu time    0.3863: real time    0.3892

 eigenvalue-minimisations  :   328
 total energy-change (2. order) : 0.1977744E-01  (-0.4035301E+00)
 number of electron      51.9999989 magnetization 
 augmentation part        1.6572903 magnetization 

 Broyden mixing:
  rms(total) = 0.30101E+00    rms(broyden)= 0.30101E+00
  rms(prec ) = 0.43457E+00
  weight for this iteration     100.00

 eigenvalues of (default mixing * dielectric matrix)
  average eigenvalue GAMMA=   0.9362
  2.1038  0.8499  0.5226  0.2685

 Free energy of the ion-electron system (eV)
  ---------------------------------------------------
  alpha Z        PSCENC =       160.27286088
  Ewald energy   TEWEN  =     -3047.38771260
  -Hartree energ DENC   =     -1668.10815470
  -exchange      EXHF   =         0.00000000
  -V(xc)+E(xc)   XCENC  =       180.52362227
  PAW double counting   =      5693.36691917    -5650.10596420
  entropy T*S    EENTRO =        -0.00470425
  eigenvalues    EBANDS =      -540.09604754
  atomic energy  EATOM  =      4831.84262874
  Solvation  Ediel_sol  =         0.00000000
  ---------------------------------------------------
  free energy    TOTEN  =       -39.69655223 eV

  energy without entropy =      -39.69184797  energy(sigma->0) =      -39.69420010


--------------------------------------------------------------------------------------------------------




--------------------------------------- Iteration      1(  10)  ---------------------------------------


    POTLOK:  cpu time    0.0551: real time    0.0579
    SETDIJ:  cpu time    0.0052: real time    0.0052
     EDDAV:  cpu time    0.2851: real time    0.2851
       DOS:  cpu time    0.0005: real time    0.0005
    CHARGE:  cpu time    0.0325: real time    0.0325
    MIXING:  cpu time    0.0015: real time    0.0015
    --------------------------------------------
      LOOP:  cpu time    0.3799: real time    0.3827

 eigenvalue-minimisations  :   320
 total energy-change (2. order) : 0.9087644E-01  (-0.6771179E-01)
 number of electron      51.9999989 magnetization 
 augmentation part        1.6135062 magnetization 

 Broyden mixing:
  rms(total) = 0.16724E+00    rms(broyden)= 0.16724E+00
  rms(prec ) = 0.17825E+00
  weight for this iteration     100.00

 eigenvalues of (default mixing * dielectric matrix)
  average eigenvalue GAMMA=   0.8839
  1.9800  0.7772  0.7772  0.4894  0.3957

 Free energy of the ion-electron system (eV)
  ---------------------------------------------------
  alpha Z        PSCENC =       160.27286088
  Ewald energy   TEWEN  =     -3047.38771260
  -Hartree energ DENC   =     -1669.08400452
  -exchange      EXHF   =         0.00000000
  -V(xc)+E(xc)   XCENC  =       180.58171498
  PAW double counting   =      5754.08887504    -5710.79078841
  entropy T*S    EENTRO =        -0.00182802
  eigenvalues    EBANDS =      -539.12742187
  atomic energy  EATOM  =      4831.84262874
  Solvation  Ediel_sol  =         0.00000000
  ---------------------------------------------------
  free energy    TOTEN  =       -39.60567578 eV

  energy without entropy =      -39.60384776  energy(sigma->0) =      -39.60476177


--------------------------------------------------------------------------------------------------------




--------------------------------------- Iteration      1(  11)  ---------------------------------------


    POTLOK:  cpu time    0.0551: real time    0.0577
    SETDIJ:  cpu time    0.0053: real time    0.0053
     EDDAV:  cpu time    0.2888: real time    0.2912
       DOS:  cpu time    0.0005: real time    0.0005
    CHARGE:  cpu time    0.0332: real time    0.0333
    MIXING:  cpu time    0.0022: real time    0.0022
    --------------------------------------------
      LOOP:  cpu time    0.3851: real time    0.3902

 eigenvalue-minimisations  :   328
 total energy-change (2. order) : 0.9650408E-03  (-0.1818418E-02)
 number of electron      51.9999989 magnetization 
 augmentation part        1.6023520 magnetization 

 Broyden mixing:
  rms(total) = 0.11503E+00    rms(broyden)= 0.11503E+00
  rms(prec ) = 0.12630E+00
  weight for this iteration     100.00

 eigenvalues of (default mixing * dielectric matrix)
  average eigenvalue GAMMA=   1.1578
  2.1459  2.1459  1.0763  0.7194  0.5244  0.3349

 Free energy of the ion-electron system (eV)
  ---------------------------------------------------
  alpha Z        PSCENC =       160.27286088
  Ewald energy   TEWEN  =     -3047.38771260
  -Hartree energ DENC   =     -1669.82866757
  -exchange      EXHF   =         0.00000000
  -V(xc)+E(xc)   XCENC  =       180.61511440
  PAW double counting   =      5728.88138934    -5685.51238806
  entropy T*S    EENTRO =        -0.00252683
  eigenvalues    EBANDS =      -538.48540905
  atomic energy  EATOM  =      4831.84262874
  Solvation  Ediel_sol  =         0.00000000
  ---------------------------------------------------
  free energy    TOTEN  =       -39.60471074 eV

  energy without entropy =      -39.60218392  energy(sigma->0) =      -39.60344733


--------------------------------------------------------------------------------------------------------




--------------------------------------- Iteration      1(  12)  ---------------------------------------


    POTLOK:  cpu time    0.0566: real time    0.0601
    SETDIJ:  cpu time    0.0054: real time    0.0054
     EDDAV:  cpu time    0.2847: real time    0.2847
       DOS:  cpu time    0.0005: real time    0.0005
    CHARGE:  cpu time    0.0325: real time    0.0325
    MIXING:  cpu time    0.0016: real time    0.0016
    --------------------------------------------
      LOOP:  cpu time    0.3814: real time    0.3849

 eigenvalue-minimisations  :   320
 total energy-change (2. order) : 0.3153488E-02  (-0.1156217E-02)
 number of electron      51.9999989 magnetization 
 augmentation part        1.6097362 magnetization 

 Broyden mixing:
  rms(total) = 0.24190E-01    rms(broyden)= 0.24190E-01
  rms(prec ) = 0.33987E-01
  weight for this iteration     100.00

 eigenvalues of (default mixing * dielectric matrix)
  average eigenvalue GAMMA=   1.1141
  2.0894  2.0894  1.1510  0.8049  0.8049  0.5229  0.3364

 Free energy of the ion-electron system (eV)
  ---------------------------------------------------
  alpha Z        PSCENC =       160.27286088
  Ewald energy   TEWEN  =     -3047.38771260
  -Hartree energ DENC   =     -1669.92748402
  -exchange      EXHF   =         0.00000000
  -V(xc)+E(xc)   XCENC  =       180.64449849
  PAW double counting   =      5722.41809041    -5679.08837237
  entropy T*S    EENTRO =        -0.00462931
  eigenvalues    EBANDS =      -538.37143748
  atomic energy  EATOM  =      4831.84262874
  Solvation  Ediel_sol  =         0.00000000
  ---------------------------------------------------
  free energy    TOTEN  =       -39.60155726 eV

  energy without entropy =      -39.59692795  energy(sigma->0) =      -39.59924260


--------------------------------------------------------------------------------------------------------




--------------------------------------- Iteration      1(  13)  ---------------------------------------


    POTLOK:  cpu time    0.0553: real time    0.0577
    SETDIJ:  cpu time    0.0053: real time    0.0053
     EDDAV:  cpu time    0.3044: real time    0.3044
       DOS:  cpu time    0.0005: real time    0.0005
    CHARGE:  cpu time    0.0317: real time    0.0318
    MIXING:  cpu time    0.0016: real time    0.0016
    --------------------------------------------
      LOOP:  cpu time    0.3989: real time    0.4013

 eigenvalue-minimisations  :   352
 total energy-change (2. order) : 0.6125488E-03  (-0.4148780E-03)
 number of electron      51.9999989 magnetization 
 augmentation part        1.6078601 magnetization 

 Broyden mixing:
  rms(total) = 0.96544E-02    rms(broyden)= 0.96542E-02
  rms(prec ) = 0.11926E-01
  weight for this iteration     100.00

 eigenvalues of (default mixing * dielectric matrix)
  average eigenvalue GAMMA=   1.0500
  2.1216  2.1216  1.0043  1.0043  0.7417  0.3360  0.5352  0.5352

 Free energy of the ion-electron system (eV)
  ---------------------------------------------------
  alpha Z        PSCENC =       160.27286088
  Ewald energy   TEWEN  =     -3047.38771260
  -Hartree energ DENC   =     -1670.08655782
  -exchange      EXHF   =         0.00000000
  -V(xc)+E(xc)   XCENC  =       180.65105953
  PAW double counting   =      5734.41328057    -5691.09208685
  entropy T*S    EENTRO =        -0.00382004
  eigenvalues    EBANDS =      -538.21059710
  atomic energy  EATOM  =      4831.84262874
  Solvation  Ediel_sol  =         0.00000000
  ---------------------------------------------------
  free energy    TOTEN  =       -39.60094471 eV

  energy without entropy =      -39.59712467  energy(sigma->0) =      -39.59903469


--------------------------------------------------------------------------------------------------------




--------------------------------------- Iteration      1(  14)  ---------------------------------------


    POTLOK:  cpu time    0.0547: real time    0.0597
    SETDIJ:  cpu time    0.0053: real time    0.0053
     EDDAV:  cpu time    0.2992: real time    0.2993
       DOS:  cpu time    0.0005: real time    0.0005
    CHARGE:  cpu time    0.0317: real time    0.0317
    MIXING:  cpu time    0.0017: real time    0.0017
    --------------------------------------------
      LOOP:  cpu time    0.3932: real time    0.3983

 eigenvalue-minimisations  :   344
 total energy-change (2. order) : 0.2583108E-04  (-0.2462928E-04)
 number of electron      51.9999989 magnetization 
 augmentation part        1.6057939 magnetization 

 Broyden mixing:
  rms(total) = 0.74419E-02    rms(broyden)= 0.74419E-02
  rms(prec ) = 0.86498E-02
  weight for this iteration     100.00

 eigenvalues of (default mixing * dielectric matrix)
  average eigenvalue GAMMA=   1.1147
  2.4794  1.9553  1.0723  1.0723  0.3362  0.5224  0.8599  0.8674  0.8674

 Free energy of the ion-electron system (eV)
  ---------------------------------------------------
  alpha Z        PSCENC =       160.27286088
  Ewald energy   TEWEN  =     -3047.38771260
  -Hartree energ DENC   =     -1670.14972112
  -exchange      EXHF   =         0.00000000
  -V(xc)+E(xc)   XCENC  =       180.65333714
  PAW double counting   =      5734.30136834    -5690.97393188
  entropy T*S    EENTRO =        -0.00344409
  eigenvalues    EBANDS =      -538.15630427
  atomic energy  EATOM  =      4831.84262874
  Solvation  Ediel_sol  =         0.00000000
  ---------------------------------------------------
  free energy    TOTEN  =       -39.60091888 eV

  energy without entropy =      -39.59747478  energy(sigma->0) =      -39.59919683


--------------------------------------------------------------------------------------------------------




--------------------------------------- Iteration      1(  15)  ---------------------------------------


    POTLOK:  cpu time    0.0550: real time    0.0582
    SETDIJ:  cpu time    0.0053: real time    0.0053
     EDDAV:  cpu time    0.2832: real time    0.2834
       DOS:  cpu time    0.0007: real time    0.0007
    CHARGE:  cpu time    0.0317: real time    0.0317
    MIXING:  cpu time    0.0017: real time    0.0017
    --------------------------------------------
      LOOP:  cpu time    0.3775: real time    0.3810

 eigenvalue-minimisations  :   320
 total energy-change (2. order) :-0.1950673E-04  (-0.1539401E-04)
 number of electron      51.9999989 magnetization 
 augmentation part        1.6062775 magnetization 

 Broyden mixing:
  rms(total) = 0.49208E-02    rms(broyden)= 0.49207E-02
  rms(prec ) = 0.55543E-02
  weight for this iteration     100.00

 eigenvalues of (default mixing * dielectric matrix)
  average eigenvalue GAMMA=   1.1957
  2.4431  2.1174  2.1174  1.1949  0.3361  0.9926  0.5221  0.7437  0.7448  0.7448

 Free energy of the ion-electron system (eV)
  ---------------------------------------------------
  alpha Z        PSCENC =       160.27286088
  Ewald energy   TEWEN  =     -3047.38771260
  -Hartree energ DENC   =     -1670.18214422
  -exchange      EXHF   =         0.00000000
  -V(xc)+E(xc)   XCENC  =       180.65670313
  PAW double counting   =      5736.32105882    -5692.99394982
  entropy T*S    EENTRO =        -0.00357245
  eigenvalues    EBANDS =      -538.12681087
  atomic energy  EATOM  =      4831.84262874
  Solvation  Ediel_sol  =         0.00000000
  ---------------------------------------------------
  free energy    TOTEN  =       -39.60093838 eV

  energy without entropy =      -39.59736593  energy(sigma->0) =      -39.59915216


--------------------------------------------------------------------------------------------------------




--------------------------------------- Iteration      1(  16)  ---------------------------------------


    POTLOK:  cpu time    0.0552: real time    0.0572
    SETDIJ:  cpu time    0.0053: real time    0.0053
     EDDAV:  cpu time    0.2883: real time    0.2905
       DOS:  cpu time    0.0005: real time    0.0005
    CHARGE:  cpu time    0.0317: real time    0.0317
    MIXING:  cpu time    0.0018: real time    0.0018
    --------------------------------------------
      LOOP:  cpu time    0.3827: real time    0.3870

 eigenvalue-minimisations  :   328
 total energy-change (2. order) :-0.1488856E-05  (-0.1050798E-04)
 number of electron      51.9999989 magnetization 
 augmentation part        1.6052348 magnetization 

 Broyden mixing:
  rms(total) = 0.15324E-02    rms(broyden)= 0.15323E-02
  rms(prec ) = 0.18528E-02
  weight for this iteration     100.00

 eigenvalues of (default mixing * dielectric matrix)
  average eigenvalue GAMMA=   1.1709
  2.4975  2.1983  1.5851  1.5851  0.9929  0.9929  0.3361  0.5219  0.7434  0.7135
  0.7135

 Free energy of the ion-electron system (eV)
  ---------------------------------------------------
  alpha Z        PSCENC =       160.27286088
  Ewald energy   TEWEN  =     -3047.38771260
  -Hartree energ DENC   =     -1670.23278941
  -exchange      EXHF   =         0.00000000
  -V(xc)+E(xc)   XCENC  =       180.65858297
  PAW double counting   =      5736.53654959    -5693.20371832
  entropy T*S    EENTRO =        -0.00317738
  eigenvalues    EBANDS =      -538.08416434
  atomic energy  EATOM  =      4831.84262874
  Solvation  Ediel_sol  =         0.00000000
  ---------------------------------------------------
  free energy    TOTEN  =       -39.60093987 eV

  energy without entropy =      -39.59776249  energy(sigma->0) =      -39.59935118


--------------------------------------------------------------------------------------------------------




--------------------------------------- Iteration      1(  17)  ---------------------------------------


    POTLOK:  cpu time    0.0550: real time    0.0575
    SETDIJ:  cpu time    0.0053: real time    0.0053
     EDDAV:  cpu time    0.2562: real time    0.2562
       DOS:  cpu time    0.0005: real time    0.0005
    CHARGE:  cpu time    0.0318: real time    0.0318
    MIXING:  cpu time    0.0018: real time    0.0018
    --------------------------------------------
      LOOP:  cpu time    0.3506: real time    0.3532

 eigenvalue-minimisations  :   280
 total energy-change (2. order) : 0.2783408E-06  (-0.1627808E-05)
 number of electron      51.9999989 magnetization 
 augmentation part        1.6055635 magnetization 

 Broyden mixing:
  rms(total) = 0.10611E-02    rms(broyden)= 0.10611E-02
  rms(prec ) = 0.11233E-02
  weight for this iteration     100.00

 eigenvalues of (default mixing * dielectric matrix)
  average eigenvalue GAMMA=   1.1628
  2.3455  2.3455  1.6999  1.6999  1.0764  1.0764  0.3361  0.7731  0.7731  0.7828
  0.5284  0.5162

 Free energy of the ion-electron system (eV)
  ---------------------------------------------------
  alpha Z        PSCENC =       160.27286088
  Ewald energy   TEWEN  =     -3047.38771260
  -Hartree energ DENC   =     -1670.22415879
  -exchange      EXHF   =         0.00000000
  -V(xc)+E(xc)   XCENC  =       180.65874949
  PAW double counting   =      5736.13157681    -5692.79921607
  entropy T*S    EENTRO =        -0.00328027
  eigenvalues    EBANDS =      -538.09238778
  atomic energy  EATOM  =      4831.84262874
  Solvation  Ediel_sol  =         0.00000000
  ---------------------------------------------------
  free energy    TOTEN  =       -39.60093959 eV

  energy without entropy =      -39.59765933  energy(sigma->0) =      -39.59929946


--------------------------------------------------------------------------------------------------------




--------------------------------------- Iteration      1(  18)  ---------------------------------------


    POTLOK:  cpu time    0.0550: real time    0.0576
    SETDIJ:  cpu time    0.0053: real time    0.0053
     EDDAV:  cpu time    0.2272: real time    0.2274
       DOS:  cpu time    0.0005: real time    0.0005
    --------------------------------------------
      LOOP:  cpu time    0.2880: real time    0.2907

 eigenvalue-minimisations  :   232
 total energy-change (2. order) :-0.5106067E-06  (-0.1528350E-06)
 number of electron      51.9999989 magnetization 
 augmentation part        1.6055635 magnetization 

 Free energy of the ion-electron system (eV)
  ---------------------------------------------------
  alpha Z        PSCENC =       160.27286088
  Ewald energy   TEWEN  =     -3047.38771260
  -Hartree energ DENC   =     -1670.22124297
  -exchange      EXHF   =         0.00000000
  -V(xc)+E(xc)   XCENC  =       180.65877863
  PAW double counting   =      5735.96514567    -5692.63318955
  entropy T*S    EENTRO =        -0.00330480
  eigenvalues    EBANDS =      -538.09490411
  atomic energy  EATOM  =      4831.84262874
  Solvation  Ediel_sol  =         0.00000000
  ---------------------------------------------------
  free energy    TOTEN  =       -39.60094010 eV

  energy without entropy =      -39.59763530  energy(sigma->0) =      -39.59928770


--------------------------------------------------------------------------------------------------------




 average (electrostatic) potential at core
  the test charge radii are     1.0818  0.9698
  (the norm of the test charge is              1.0000)
       1 -75.9911       2 -75.3579       3 -85.2391       4 -87.2087       5 -85.4307
       6 -85.9344
 
 
 
 E-fermi :   6.4102     XC(G=0): -10.3257     alpha+bet :-12.2268

 Fermi energy:         6.4102410973

 k-point     1 :       0.2500    0.2500    0.0000
  band No.  band energies     occupation 
      1     -55.2320      2.00000
      2     -54.5389      2.00000
      3     -29.4911      2.00000
      4     -29.4408      2.00000
      5     -29.3433      2.00000
      6     -28.7078      2.00000
      7     -28.6404      2.00000
      8     -28.5854      2.00000
      9      -8.9858      2.00000
     10      -6.7186      2.00000
     11      -6.0394      2.00000
     12      -4.8780      2.00000
     13      -0.3560      2.00000
     14       0.2049      2.00000
     15       0.4961      2.00000
     16       1.3526      2.00000
     17       1.5065      2.00000
     18       2.2420      2.00000
     19       2.6137      2.00000
     20       2.9235      2.00000
     21       3.2127      2.00000
     22       3.6709      2.00000
     23       4.7795      2.00000
     24       5.1660      2.00000
     25       5.5427      2.00000
     26       5.9158      2.00000
     27       6.4808      0.04599
     28       7.7744      0.00000
     29       8.1043      0.00000
     30       8.3342      0.00000
     31       8.5919      0.00000
     32       9.2000      0.00000

 k-point     2 :      -0.2500    0.5000    0.0000
  band No.  band energies     occupation 
      1     -55.2320      2.00000
      2     -54.5389      2.00000
      3     -29.4893      2.00000
      4     -29.4408      2.00000
      5     -29.3451      2.00000
      6     -28.7090      2.00000
      7     -28.6403      2.00000
      8     -28.5842      2.00000
      9      -8.9855      2.00000
     10      -6.7184      2.00000
     11      -6.0394      2.00000
     12      -4.8788      2.00000
     13      -0.3579      2.00000
     14       0.1972      2.00000
     15       0.5060      2.00000
     16       1.3514      2.00000
     17       1.5103      2.00000
     18       2.2406      2.00000
     19       2.6152      2.00000
     20       2.9250      2.00000
     21       3.2137      2.00000
     22       3.6597      2.00000
     23       4.7952      2.00000
     24       5.1678      2.00000
     25       5.5341      2.00000
     26       5.9161      2.00000
     27       6.4849      0.03462
     28       7.7759      0.00000
     29       8.0961      0.00000
     30       8.3443      0.00000
     31       8.5958      0.00000
     32       9.1567      0.00000

 k-point     3 :      -0.2500    0.2500    0.0000
  band No.  band energies     occupation 
      1     -55.2502      2.00000
      2     -54.5555      2.00000
      3     -29.4781      2.00000
      4     -29.3749      2.00000
      5     -29.2336      2.00000
      6     -28.6711      2.00000
      7     -28.6075      2.00000
      8     -28.4843      2.00000
      9      -9.6700      2.00000
     10      -7.4507      2.00000
     11      -6.7636      2.00000
     12      -5.4998      2.00000
     13      -0.3584      2.00000
     14       0.6611      2.00000
     15       1.4740      2.00000
     16       1.9947      2.00000
     17       2.4802      2.00000
     18       2.5699      2.00000
     19       2.7963      2.00000
     20       3.4619      2.00000
     21       4.1148      2.00000
     22       4.5114      2.00000
     23       4.8226      2.00000
     24       5.5345      2.00000
     25       5.8723      2.00000
     26       6.3377      1.95988
     27       6.7126      0.00000
     28       7.0982      0.00000
     29       7.8531      0.00000
     30       8.0413      0.00000
     31       8.2050      0.00000
     32       9.1573      0.00000

 k-point     4 :      -0.2500    0.0000    0.0000
  band No.  band energies     occupation 
      1     -55.2502      2.00000
      2     -54.5555      2.00000
      3     -29.4781      2.00000
      4     -29.3768      2.00000
      5     -29.2318      2.00000
      6     -28.6711      2.00000
      7     -28.6062      2.00000
      8     -28.4855      2.00000
      9      -9.6701      2.00000
     10      -7.4510      2.00000
     11      -6.7636      2.00000
     12      -5.4992      2.00000
     13      -0.3593      2.00000
     14       0.6713      2.00000
     15       1.4692      2.00000
     16       1.9946      2.00000
     17       2.4802      2.00000
     18       2.5558      2.00000
     19       2.7977      2.00000
     20       3.4615      2.00000
     21       4.1138      2.00000
     22       4.5088      2.00000
     23       4.8319      2.00000
     24       5.5353      2.00000
     25       5.8704      2.00000
     26       6.3367      1.96245
     27       6.7177      0.00000
     28       7.0990      0.00000
     29       7.8533      0.00000
     30       8.0384      0.00000
     31       8.2256      0.00000
     32       9.1572      0.00000


--------------------------------------------------------------------------------------------------------


 soft charge-density along one line, spin component           1
         0         1         2         3         4         5         6         7         8         9
 total charge-density along one line
 
 pseudopotential strength for first ion, spin component:           1
 -5.076  11.460  -0.000  -0.012  -0.000   0.000   0.013   0.000
 11.460   3.265   0.000   0.010   0.000  -0.000  -0.001  -0.000
 -0.000   0.000 -18.160   0.000  -0.000   8.987  -0.000   0.000
 -0.012   0.010   0.000 -18.183  -0.000  -0.000   9.014   0.000
 -0.000   0.000  -0.000  -0.000 -18.160   0.000   0.000   8.987
  0.000  -0.000   8.987  -0.000   0.000   5.714   0.000  -0.000
  0.013  -0.001  -0.000   9.014   0.000   0.000   5.698  -0.000
  0.000  -0.000   0.000   0.000   8.987  -0.000  -0.000   5.714
 -0.000   0.000  -0.000   0.000   0.008   0.000  -0.000  -0.004
  0.000  -0.000  -0.011  -0.000   0.000   0.007   0.000  -0.000
 -0.016   0.009   0.000  -0.012   0.000  -0.000   0.007  -0.000
 -0.000   0.000   0.000  -0.000  -0.011  -0.000   0.000   0.007
 -0.000   0.000   0.008   0.000  -0.000  -0.004  -0.000   0.000
 -0.000   0.000  -0.000   0.000   0.008   0.000  -0.000  -0.004
  0.000  -0.000  -0.012  -0.000   0.000   0.007   0.000  -0.000
 -0.016   0.009   0.000  -0.013   0.000  -0.000   0.007  -0.000
 -0.000   0.000   0.000  -0.000  -0.012  -0.000   0.000   0.007
 -0.000   0.000   0.008   0.000  -0.000  -0.004  -0.000   0.000
 total augmentation occupancy for first ion, spin component:           1
  1.996  -0.037  -0.000   0.000   0.000  -0.000   0.001   0.000   0.000  -0.000   0.031   0.000   0.001   0.000   0.000  -0.029
 -0.037   1.182   0.000   0.009   0.000  -0.000  -0.024   0.000   0.000   0.003  -0.176   0.000  -0.006   0.000  -0.003   0.208
 -0.000   0.000   1.999  -0.000   0.000  -0.038   0.000   0.000   0.000   0.008  -0.000   0.000   0.006   0.000  -0.003   0.000
  0.000   0.009  -0.000   1.999   0.000   0.000  -0.045   0.000   0.000   0.000   0.009   0.000   0.000   0.000  -0.000  -0.008
  0.000   0.000   0.000   0.000   1.999   0.000   0.000  -0.038   0.006   0.000   0.000   0.008   0.000   0.002   0.000   0.000
 -0.000  -0.000  -0.038   0.000   0.000   0.089  -0.000   0.000   0.000  -0.010  -0.000   0.000   0.194   0.000   0.004  -0.000
  0.001  -0.024   0.000  -0.045   0.000  -0.000   0.115   0.000   0.000   0.001  -0.024   0.000  -0.002   0.000  -0.001   0.027
  0.000   0.000   0.000   0.000  -0.038   0.000   0.000   0.089   0.195   0.000   0.000  -0.011   0.000  -0.213   0.000   0.000
  0.000   0.000   0.000   0.000   0.006   0.000   0.000   0.195   2.913   0.000   0.000  -0.345   0.000  -3.134   0.000   0.000
 -0.000   0.003   0.008   0.000   0.000  -0.010   0.001   0.000   0.000   4.596   0.004   0.000  -0.352   0.000  -5.467  -0.002
  0.031  -0.176  -0.000   0.009   0.000  -0.000  -0.024   0.000   0.000   0.004   1.590   0.000  -0.004   0.000  -0.002  -1.757
  0.000   0.000   0.000   0.000   0.008   0.000   0.000  -0.011  -0.345   0.000   0.000   4.582   0.000   0.227   0.000   0.000
  0.001  -0.006   0.006   0.000   0.000   0.194  -0.002   0.000   0.000  -0.352  -0.004   0.000   2.911   0.000   0.231   0.002
  0.000   0.000   0.000   0.000   0.002   0.000   0.000  -0.213  -3.134   0.000   0.000   0.227   0.000   4.218   0.000   0.000
  0.000  -0.003  -0.003  -0.000   0.000   0.004  -0.001   0.000   0.000  -5.467  -0.002   0.000   0.231   0.000   6.944   0.001
 -0.029   0.208   0.000  -0.008   0.000  -0.000   0.027   0.000   0.000  -0.002  -1.757   0.000   0.002   0.000   0.001   2.813
  0.000   0.000   0.000   0.000  -0.003   0.000   0.000   0.005   0.227   0.000   0.000  -5.463   0.000  -0.124   0.000   0.000
 -0.001   0.004   0.002  -0.000   0.000  -0.213   0.001   0.000   0.000   0.230   0.002   0.000  -3.135   0.000  -0.125  -0.000


------------------------ aborting loop because EDIFF is reached ----------------------------------------


    CHARGE:  cpu time    0.0318: real time    0.0324
    FORLOC:  cpu time    0.0046: real time    0.0046
    FORNL :  cpu time    0.0544: real time    0.0544
    STRESS:  cpu time    0.1192: real time    0.1215
    FORCOR:  cpu time    0.0589: real time    0.0590
    FORHAR:  cpu time    0.0153: real time    0.0153
    MIXING:  cpu time    0.0019: real time    0.0019
    OFIELD:  cpu time    0.0000: real time    0.0000

 ---------------------------------------------------------------------------------------------

         DFTD3 V3.0 Rev 1        
 IVDW         = 12
 DF pbe       
 parameters
 VDW_S6       =    1.0000
 VDW_S8       =    0.7875
 VDW_A1       =    0.4289
 VDW_A2       =    4.4407
 k1-k3        =   16.0000    1.3333   -4.0000
 VDW_RADIUS   =   50.2022 A
 VDW_CNRADIUS =   21.1671 A
 Edisp (eV)   -2.33600

 E6    (eV) :    -1.3899
 E8    (eV) :    -0.9461
 % E8        : 40.50
    FORVDW:  cpu time    0.0385: real time    0.0519

  FORCE on cell =-STRESS in cart. coord.  units (eV):
  Direction    XX          YY          ZZ          XY          YZ          ZX
  --------------------------------------------------------------------------------------
  Alpha Z   160.27286   160.27286   160.27286
  Ewald    -339.27615  -339.44258 -2368.67159     0.00000     1.45594    -0.00000
  Hartree  1148.68048  1148.53934  -626.92323     0.00000     0.13148    -0.00000
  E(xc)    -218.50841  -218.50719  -218.35803    -0.00000     0.01607     0.00000
  Local   -1824.88581 -1824.58044  2008.40624     0.00000    -0.78034    -0.00000
  n-local   233.93587   233.94575   236.15294    -2.30628    -0.27689    -0.32090
  augment    -2.13273    -2.12944    -0.46500     0.00000     0.10287    -0.00000
  Kinetic   839.77323   839.85584   800.98893    -4.10447    -0.72630     1.86968
  Fock        0.00000     0.00000     0.00000     0.00000     0.00000     0.00000
  vdW        -2.40887    -2.40924    -2.32765     0.00000    -0.00083    -0.00000
  -------------------------------------------------------------------------------------
  Total      -4.54952    -4.45510   -10.92452     0.00000    -0.07801     0.00000
  in kB     -61.73831   -60.45700  -148.24881     0.00000    -1.05866     0.00000
  external pressure =      -90.15 kB  Pullay stress =        0.00 kB


 VOLUME and BASIS-vectors are now :
 -----------------------------------------------------------------------------
  energy-cutoff  :      500.00
  volume of cell :      118.07
      direct lattice vectors                 reciprocal lattice vectors
     1.596118927 -2.764559076  0.000000000     0.313259865 -0.180860668  0.000000000
     1.596118927  2.764559076  0.000000000     0.313259865  0.180860668  0.000000000
     0.000000000  0.000000000 13.378293991     0.000000000  0.000000000  0.074747946

  length of vectors
     3.192237854  3.192237854 13.378293991     0.361721335  0.361721335  0.074747946


 FORCES acting on ions
    electron-ion (+dipol)            ewald-force                    non-local-force                 convergence-correction
 -----------------------------------------------------------------------------------------------
   0.777E-09 -.396E-01 0.193E+03   -.249E-13 0.324E-01 -.195E+03   0.000E+00 0.814E-02 0.197E+01   0.688E-13 -.353E-05 0.380E-01
   0.156E-07 0.218E+00 0.133E+03   -.125E-12 -.224E+00 -.126E+03   0.694E-17 -.233E-01 -.638E+01   -.860E-13 -.604E-04 -.445E-01
   -.175E-06 -.370E+00 -.173E+03   0.978E-13 0.130E+01 0.178E+03   -.139E-16 -.886E+00 -.688E+01   -.636E-14 -.141E-03 0.867E-02
   0.898E-07 0.862E+00 -.316E+03   0.119E-13 -.111E+01 0.312E+03   0.278E-16 0.243E+00 0.518E+01   -.209E-13 0.291E-03 0.351E-01
   -.879E-07 0.112E-01 -.328E+03   -.458E-14 0.130E-02 0.333E+03   0.000E+00 -.155E-01 -.627E+01   -.108E-13 0.380E-04 -.130E-01
   0.750E-07 -.175E-01 0.498E+03   0.150E-13 -.838E-03 -.503E+03   0.000E+00 0.889E-02 0.531E+01   0.784E-14 0.417E-05 -.672E-02
 -----------------------------------------------------------------------------------------------
   -.821E-07 0.665E+00 0.704E+01   -.299E-13 0.631E-14 -.568E-13   0.208E-16 -.665E+00 -.706E+01   -.476E-13 0.128E-03 0.175E-01
 
 
 POSITION                                       TOTAL-FORCE (eV/Angst)
 -----------------------------------------------------------------------------------
      1.59612     -0.92152      3.34457         0.000000      0.001029     -0.366611
      1.59612      0.92152     10.03372         0.000000     -0.029203      0.779267
      1.59612      0.96345      6.94814         0.000000      0.040338     -1.423620
      1.59612      0.92152      4.90874         0.000000      0.000264      1.615768
      1.59612     -0.92152     11.59788         0.000000     -0.002978     -1.312323
      1.59612      0.92152      1.78041         0.000000     -0.009449      0.707519
 -----------------------------------------------------------------------------------
    total drift:                               -0.000000      0.000030      0.000273


--------------------------------------------------------------------------------------------------------



  FREE ENERGIE OF THE ION-ELECTRON SYSTEM (eV)
  ---------------------------------------------------
  free  energy   TOTEN  =       -41.93694042 eV

  energy  without entropy=      -41.93363562  energy(sigma->0) =      -41.93528802
 


--------------------------------------------------------------------------------------------------------


    POTLOK:  cpu time    0.0603: real time    0.0603


--------------------------------------------------------------------------------------------------------


 stress matrix after NEB project (eV)
     -4.54952      0.00000      0.00000
      0.00000     -4.45510     -0.07801
      0.00000     -0.07801    -10.92452
  FORCES: max atom, RMS     1.615768    1.125790
  FORCE total and by dimension    2.757610    1.615768
  Stress total and by dimension   12.645296   10.924523
 writing wavefunctions
     LOOP+:  cpu time    7.5831: real time    7.7078
    4ORBIT:  cpu time    0.0000: real time    0.0000

 total amount of memory used by VASP MPI-rank0    37866. kBytes
=======================================================================

   base      :      30000. kBytes
   nonl-proj :        950. kBytes
   fftplans  :       2329. kBytes
   grid      :       3750. kBytes
   one-center:         31. kBytes
   wavefun   :        806. kBytes
 
  
  
 General timing and accounting informations for this job:
 ========================================================
  
                  Total CPU time used (sec):        9.194
                            User time (sec):        8.341
                          System time (sec):        0.853
                         Elapsed time (sec):       10.144
  
                   Maximum memory used (kb):      138176.
                   Average memory used (kb):          N/A
  
                          Minor page faults:        24270
                          Major page faults:          106
                 Voluntary context switches:         1158
