 vasp.6.2.0 18Jan21 (build Jul 31 2023 14:19:35) complex                        
  
 executed on             LinuxIFC date 2025.09.17  14:01:56
 running on    8 total cores
 distrk:  each k-point on    8 cores,    1 groups
 distr:  one band on NCORE=   4 cores,    2 groups


--------------------------------------------------------------------------------------------------------


 INCAR:
   SYSTEM = MoS2_SinglePoint_vdW_Coulomb
   PREC = Accurate
   ENCUT = 500
   GGA = PE
   ALGO = Normal
   NELM = 100
   NELMIN = 5
   EDIFF = 1E-6
   ISMEAR = 0
   SIGMA = 0.05
   IBRION = -1
   NSW = 0
   IVDW = 12
   LREAL = .FALSE.
   LCHARG = .TRUE.
   LWAVE = .TRUE.
   NWRITE = 1
   NCORE = 4

 POTCAR:    PAW_PBE Mo_sv 02Feb2006               
 POTCAR:    PAW_PBE S 06Sep2000                   
 POTCAR:    PAW_PBE Mo_sv 02Feb2006               
  local pseudopotential read in
  partial core-charges read in
  partial kinetic energy density read in
  atomic valenz-charges read in
  non local Contribution for L=           0  read in
    real space projection operators read in
  non local Contribution for L=           0  read in
    real space projection operators read in
  non local Contribution for L=           1  read in
    real space projection operators read in
  non local Contribution for L=           1  read in
    real space projection operators read in
  non local Contribution for L=           2  read in
    real space projection operators read in
  non local Contribution for L=           2  read in
    real space projection operators read in
    PAW grid and wavefunctions read in
 
   number of l-projection  operators is LMAX  =           6
   number of lm-projection operators is LMMAX =          18
 
 POTCAR:    PAW_PBE S 06Sep2000                   
  local pseudopotential read in
  partial core-charges read in
  partial kinetic energy density read in
  atomic valenz-charges read in
  non local Contribution for L=           0  read in
    real space projection operators read in
  non local Contribution for L=           0  read in
    real space projection operators read in
  non local Contribution for L=           1  read in
    real space projection operators read in
  non local Contribution for L=           1  read in
    real space projection operators read in
    PAW grid and wavefunctions read in
 
   number of l-projection  operators is LMAX  =           4
   number of lm-projection operators is LMMAX =           8
 
  PAW_PBE Mo_sv 02Feb2006               :
 energy of atom  1       EATOM=-1862.2866
 kinetic energy error for atom=    0.0074 (will be added to EATOM!!)
  PAW_PBE S 06Sep2000                   :
 energy of atom  2       EATOM= -276.8230
 kinetic energy error for atom=    0.0020 (will be added to EATOM!!)
 
 
 POSCAR: Mo S
  positions in direct lattice
  No initial velocities read in
 exchange correlation table for  LEXCH =        8
   RHO(1)=    0.500       N(1)  =     2000
   RHO(2)=  100.500       N(2)  =     4000

 VTST: version 4.0, (05/15/20)

 CHAIN: initializing optimizer
 
 OPT: Using VASP Dynamics algorithm
 CHAIN: Read ICHAIN            0
 
 POSCAR: Mo S
  positions in direct lattice
  No initial velocities read in
 


--------------------------------------------------------------------------------------------------------


 ion  position               nearest neighbor table
   1  0.667  0.333  0.250-   4 2.42   6 2.42   4 2.42   6 2.42   4 2.42   6 2.42   3 2.51
   2  0.333  0.667  0.750-   5 2.42   5 2.42   5 2.42
   3  0.667  0.333  0.438-   4 2.07   4 2.07   4 2.07   1 2.51
   4  0.333  0.667  0.367-   3 2.07   3 2.07   3 2.07   1 2.42   1 2.42   1 2.42
   5  0.667  0.333  0.867-   2 2.42   2 2.42   2 2.42
   6  0.333  0.667  0.133-   1 2.42   1 2.42   1 2.42
 
  LATTYP: Found a hexagonal cell.
 ALAT       =     3.1922378540
 C/A-ratio  =     4.1908825730
  
  Lattice vectors:
  
 A1 = (   1.5961189270,  -2.7645590765,   0.0000000000)
 A2 = (   1.5961189270,   2.7645590765,   0.0000000000)
 A3 = (   0.0000000000,   0.0000000000,  13.3782939911)


Analysis of symmetry for initial positions (statically):
=====================================================================
 Subroutine PRICEL returns:
 Original cell was already a primitive cell.
 

 Routine SETGRP: Setting up the symmetry group for a 
 hexagonal supercell.


 Subroutine GETGRP returns: Found  6 space group operations
 (whereof  6 operations were pure point group operations)
 out of a pool of 24 trial point group operations.


The static configuration has the point symmetry C_3v.


Analysis of symmetry for dynamics (positions and initial velocities):
=====================================================================
 Subroutine PRICEL returns:
 Original cell was already a primitive cell.
 

 Routine SETGRP: Setting up the symmetry group for a 
 hexagonal supercell.


 Subroutine GETGRP returns: Found  6 space group operations
 (whereof  6 operations were pure point group operations)
 out of a pool of 24 trial point group operations.


The dynamic configuration has the point symmetry C_3v.


 Subroutine INISYM returns: Found  6 space group operations
 (whereof  6 operations are pure point group operations),
 and found     1 'primitive' translations


----------------------------------------------------------------------------------------

                                     Primitive cell                                     

  volume of cell :     118.0652

  direct lattice vectors                    reciprocal lattice vectors
     1.596118927 -2.764559076  0.000000000     0.313259865 -0.180860668  0.000000000
     1.596118927  2.764559076  0.000000000     0.313259865  0.180860668  0.000000000
     0.000000000  0.000000000 13.378293991     0.000000000  0.000000000  0.074747946

  length of vectors
     3.192237854  3.192237854 13.378293991     0.361721335  0.361721335  0.074747946

  position of ions in fractional coordinates (direct lattice)
     0.666666667  0.333333333  0.250000000
     0.333333333  0.666666667  0.750000000
     0.666666667  0.333333333  0.437937693
     0.333333333  0.666666667  0.366918000
     0.666666667  0.333333333  0.866918000
     0.333333333  0.666666667  0.133082000

  ion indices of the primitive-cell ions
   primitive index   ion index
                 1           1
                 2           2
                 3           3
                 4           4
                 5           5
                 6           6

----------------------------------------------------------------------------------------

 
 
 KPOINTS: K-Spacing Value to Generate K-Mesh: 0.15

Automatic generation of k-mesh.
 Grid dimensions read from file:
 generate k-points for:    2    2    1

 Generating k-lattice:

  Cartesian coordinates                     Fractional coordinates (reciprocal lattice)
     0.156629933 -0.090430334  0.000000000     0.500000000  0.000000000  0.000000000
     0.156629933  0.090430334  0.000000000     0.000000000  0.500000000  0.000000000
     0.000000000  0.000000000  0.074747946     0.000000000  0.000000000  1.000000000

  Length of vectors
     0.180860668  0.180860668  0.074747946

  Shift w.r.t. Gamma in fractional coordinates (k-lattice)
     0.500000000  0.500000000  0.000000000

 
 Subroutine IBZKPT returns following result:
 ===========================================
 
 Found      2 irreducible k-points:
 
 Following reciprocal coordinates:
            Coordinates               Weight
  0.250000  0.250000  0.000000      6.000000
 -0.250000  0.250000  0.000000      6.000000
 
 Following cartesian coordinates:
            Coordinates               Weight
  0.156630  0.000000  0.000000      6.000000
  0.000000  0.090430  0.000000      6.000000
 


--------------------------------------------------------------------------------------------------------




 Dimension of arrays:
   k-points           NKPTS =      2   k-points in BZ     NKDIM =      2   number of bands    NBANDS=     32
   number of dos      NEDOS =    301   number of ions     NIONS =      6
   non local maximal  LDIM  =      6   non local SUM 2l+1 LMDIM =     18
   total plane-waves  NPLWV =  56448
   max r-space proj   IRMAX =      1   max aug-charges    IRDMAX=  21106
   dimension x,y,z NGX =    24 NGY =   24 NGZ =   98
   dimension x,y,z NGXF=    48 NGYF=   48 NGZF=  196
   support grid    NGXF=    48 NGYF=   48 NGZF=  196
   ions per type =               2   4
   NGX,Y,Z   is equivalent  to a cutoff of  12.50, 12.50, 12.18 a.u.
   NGXF,Y,Z  is equivalent  to a cutoff of  25.00, 25.00, 24.36 a.u.

 SYSTEM =  MoS2_SinglePoint_vdW_Coulomb           
 POSCAR =  Mo S                                    

 Startparameter for this run:
   NWRITE =      1    write-flag & timer
   PREC   = accura    normal or accurate (medium, high low for compatibility)
   ISTART =      0    job   : 0-new  1-cont  2-samecut
   ICHARG =      2    charge: 1-file 2-atom 10-const
   ISPIN  =      1    spin polarized calculation?
   LNONCOLLINEAR =      F non collinear calculations
   LSORBIT =      F    spin-orbit coupling
   INIWAV =      1    electr: 0-lowe 1-rand  2-diag
   LASPH  =      F    aspherical Exc in radial PAW
   METAGGA=      F    non-selfconsistent MetaGGA calc.

 Electronic Relaxation 1
   ENCUT  =  500.0 eV  36.75 Ry    6.06 a.u.   5.82  5.82 24.39*2*pi/ulx,y,z
   ENINI  =  500.0     initial cutoff
   ENAUG  =  446.0 eV  augmentation charge cutoff
   NELM   =    100;   NELMIN=  5; NELMDL= -5     # of ELM steps 
   EDIFF  = 0.1E-05   stopping-criterion for ELM
   LREAL  =      F    real-space projection
   NLSPLINE    = F    spline interpolate recip. space projectors
   LCOMPAT=      F    compatible to vasp.4.4
   GGA_COMPAT  = T    GGA compatible to vasp.4.4-vasp.4.6
   LMAXPAW     = -100 max onsite density
   LMAXMIX     =    2 max onsite mixed and CHGCAR
   VOSKOWN=      0    Vosko Wilk Nusair interpolation
   ROPT   =    0.00000   0.00000
 Ionic relaxation
   EDIFFG = 0.1E-04   stopping-criterion for IOM
   NSW    =      0    number of steps for IOM
   NBLOCK =      1;   KBLOCK =      1    inner block; outer block 
   IBRION =     -1    ionic relax: 0-MD 1-quasi-New 2-CG
   NFREE  =      0    steps in history (QN), initial steepest desc. (CG)
   ISIF   =      2    stress and relaxation
   IWAVPR =     10    prediction:  0-non 1-charg 2-wave 3-comb
   ISYM   =      2    0-nonsym 1-usesym 2-fastsym
   LCORR  =      T    Harris-Foulkes like correction to forces

   POTIM  = 0.5000    time-step for ionic-motion
   TEIN   =    0.0    initial temperature
   TEBEG  =    0.0;   TEEND  =   0.0 temperature during run
   SMASS  =  -3.00    Nose mass-parameter (am)
   estimated Nose-frequenzy (Omega)   =  0.10E-29 period in steps = 0.13E+47 mass=  -0.233E-27a.u.
   SCALEE = 1.0000    scale energy and forces
   NPACO  =    256;   APACO  = 16.0  distance and # of slots for P.C.
   PSTRESS=    0.0 pullay stress

  Mass of Ions in am
   POMASS =  95.94 32.07
  Ionic Valenz
   ZVAL   =  14.00  6.00
  Atomic Wigner-Seitz radii
   RWIGS  =  -1.00 -1.00
  virtual crystal weights 
   VCA    =   1.00  1.00
   NELECT =      52.0000    total number of electrons
   NUPDOWN=      -1.0000    fix difference up-down

 DOS related values:
   EMIN   =  10.00;   EMAX   =-10.00  energy-range for DOS
   EFERMI =   0.00
   ISMEAR =     0;   SIGMA  =   0.05  broadening in eV -4-tet -1-fermi 0-gaus

 Electronic relaxation 2 (details)
   IALGO  =     38    algorithm
   LDIAG  =      T    sub-space diagonalisation (order eigenvalues)
   LSUBROT=      F    optimize rotation matrix (better conditioning)
   TURBO    =      0    0=normal 1=particle mesh
   IRESTART =      0    0=no restart 2=restart with 2 vectors
   NREBOOT  =      0    no. of reboots
   NMIN     =      0    reboot dimension
   EREF     =   0.00    reference energy to select bands
   IMIX   =      4    mixing-type and parameters
     AMIX     =   0.40;   BMIX     =  1.00
     AMIX_MAG =   1.60;   BMIX_MAG =  1.00
     AMIN     =   0.10
     WC   =   100.;   INIMIX=   1;  MIXPRE=   1;  MAXMIX= -45

 Intra band minimization:
   WEIMIN = 0.0000     energy-eigenvalue tresh-hold
   EBREAK =  0.78E-08  absolut break condition
   DEPER  =   0.30     relativ break condition  

   TIME   =   0.40     timestep for ELM

  volume/ion in A,a.u.               =      19.68       132.79
  Fermi-wavevector in a.u.,A,eV,Ry     =   1.245571  2.353789 21.108736  1.551448
  Thomas-Fermi vector in A             =   2.379788
 
 Write flags
   LWAVE        =      T    write WAVECAR
   LDOWNSAMPLE  =      F    k-point downsampling of WAVECAR
   LCHARG       =      T    write CHGCAR
   LVTOT        =      F    write LOCPOT, total local potential
   LVHAR        =      F    write LOCPOT, Hartree potential only
   LELF         =      F    write electronic localiz. function (ELF)
   LORBIT       =      0    0 simple, 1 ext, 2 COOP (PROOUT), +10 PAW based schemes


 Dipole corrections
   LMONO  =      F    monopole corrections only (constant potential shift)
   LDIPOL =      F    correct potential (dipole corrections)
   IDIPOL =      0    1-x, 2-y, 3-z, 4-all directions 
   EPSILON=  1.0000000 bulk dielectric constant

 Exchange correlation treatment:
   GGA     =    PE    GGA type
   LEXCH   =     8    internal setting for exchange type
   VOSKOWN=      0    Vosko Wilk Nusair interpolation
   LHFCALC =     F    Hartree Fock is set to
   LHFONE  =     F    Hartree Fock one center treatment
   AEXX    =    0.0000 exact exchange contribution

 Linear response parameters
   LEPSILON=     F    determine dielectric tensor
   LRPA    =     F    only Hartree local field effects (RPA)
   LNABLA  =     F    use nabla operator in PAW spheres
   LVEL    =     F    velocity operator in full k-point grid
   LINTERFAST=   F  fast interpolation
   KINTER  =     0    interpolate to denser k-point grid
   CSHIFT  =0.1000    complex shift for real part using Kramers Kronig
   OMEGAMAX=  -1.0    maximum frequency
   DEG_THRESHOLD= 0.2000000E-02 threshold for treating states as degnerate
   RTIME   =   -0.100 relaxation time in fs
  (WPLASMAI=    0.000 imaginary part of plasma frequency in eV, 0.658/RTIME)
   DFIELD  = 0.0000000 0.0000000 0.0000000 field for delta impulse in time
 
 Orbital magnetization related:
   ORBITALMAG=     F  switch on orbital magnetization
   LCHIMAG   =     F  perturbation theory with respect to B field
   DQ        =  0.001000  dq finite difference perturbation B field
   LLRAUG    =     F  two centre corrections for induced B field



--------------------------------------------------------------------------------------------------------


 Static calculation
 charge density and potential will be updated during run
 non-spin polarized calculation
 Variant of blocked Davidson
 Davidson routine will perform the subspace rotation
 perform sub-space diagonalisation
    after iterative eigenvector-optimisation
 modified Broyden-mixing scheme, WC =      100.0
 initial mixing is a Kerker type mixing with AMIX =  0.4000 and BMIX =      1.0000
 Hartree-type preconditioning will be used
 using additional bands            6
 reciprocal scheme for non local part
 use partial core corrections
 calculate Harris-corrections to forces 
   (improved forces if not selfconsistent)
 use gradient corrections 
 use of overlap-Matrix (Vanderbilt PP)
 Gauss-broadening in eV      SIGMA  =   0.05


--------------------------------------------------------------------------------------------------------


  energy-cutoff  :      500.00
  volume of cell :      118.07
      direct lattice vectors                 reciprocal lattice vectors
     1.596118927 -2.764559076  0.000000000     0.313259865 -0.180860668  0.000000000
     1.596118927  2.764559076  0.000000000     0.313259865  0.180860668  0.000000000
     0.000000000  0.000000000 13.378293991     0.000000000  0.000000000  0.074747946

  length of vectors
     3.192237854  3.192237854 13.378293991     0.361721335  0.361721335  0.074747946


 
 k-points in units of 2pi/SCALE and weight: K-Spacing Value to Generate K-Mesh: 0.15
   0.15662993  0.00000000  0.00000000       0.500
   0.00000000  0.09043033  0.00000000       0.500
 
 k-points in reciprocal lattice and weights: K-Spacing Value to Generate K-Mesh: 0.15
   0.25000000  0.25000000  0.00000000       0.500
  -0.25000000  0.25000000  0.00000000       0.500
 
 position of ions in fractional coordinates (direct lattice) 
   0.66666667  0.33333333  0.25000000
   0.33333333  0.66666667  0.75000000
   0.66666667  0.33333333  0.43793769
   0.33333333  0.66666667  0.36691800
   0.66666667  0.33333333  0.86691800
   0.33333333  0.66666667  0.13308200
 
 position of ions in cartesian coordinates  (Angst):
   1.59611893 -0.92151969  3.34457350
   1.59611893  0.92151969 10.03372049
   1.59611893 -0.92151969  5.85885921
   1.59611893  0.92151969  4.90873687
   1.59611893 -0.92151969 11.59788387
   1.59611893  0.92151969  1.78041012
 


--------------------------------------------------------------------------------------------------------


 k-point   1 :   0.2500 0.2500 0.0000  plane waves:    3020
 k-point   2 :  -0.2500 0.2500 0.0000  plane waves:    2992

 maximum and minimum number of plane-waves per node :       768      742

 maximum number of plane-waves:      3020
 maximum index in each direction: 
   IXMAX=    6   IYMAX=    5   IZMAX=   24
   IXMIN=   -6   IYMIN=   -6   IZMIN=  -24


 parallel 3D FFT for wavefunctions:
    minimum data exchange during FFTs selected (reduces bandwidth)
 parallel 3D FFT for charge:
    minimum data exchange during FFTs selected (reduces bandwidth)


 total amount of memory used by VASP MPI-rank0    37007. kBytes
=======================================================================

   base      :      30000. kBytes
   nonl-proj :        502. kBytes
   fftplans  :       2328. kBytes
   grid      :       3750. kBytes
   one-center:         31. kBytes
   wavefun   :        396. kBytes
 
     INWAV:  cpu time    0.0000: real time    0.0001
 Broyden mixing: mesh for mixing (old mesh)
   NGX = 11   NGY = 11   NGZ = 49
  (NGX  = 48   NGY  = 48   NGZ  =196)
  gives a total of   5929 points

 initial charge density was supplied:
 charge density of overlapping atoms calculated
 number of electron      52.0000000 magnetization 
 keeping initial charge density in first step


--------------------------------------------------------------------------------------------------------


 Maximum index for augmentation-charges         2591 (set IRDMAX)


--------------------------------------------------------------------------------------------------------


 First call to EWALD:  gamma=   0.361
 Maximum number of real-space cells 4x 4x 1
 Maximum number of reciprocal cells 2x 2x 7

    FEWALD:  cpu time    0.0020: real time    0.0020


--------------------------------------- Iteration      1(   1)  ---------------------------------------


    POTLOK:  cpu time    0.0584: real time    0.0596
    SETDIJ:  cpu time    0.0055: real time    0.0055
     EDDAV:  cpu time    0.1331: real time    0.1332
       DOS:  cpu time    0.0004: real time    0.0004
    --------------------------------------------
      LOOP:  cpu time    0.1975: real time    0.1988

 eigenvalue-minimisations  :   144
 total energy-change (2. order) : 0.4420509E+03  (-0.2911778E+04)
 number of electron      52.0000000 magnetization 
 augmentation part       52.0000000 magnetization 

 Free energy of the ion-electron system (eV)
  ---------------------------------------------------
  alpha Z        PSCENC =       160.27286088
  Ewald energy   TEWEN  =     -2671.48696594
  -Hartree energ DENC   =     -2066.37315537
  -exchange      EXHF   =         0.00000000
  -V(xc)+E(xc)   XCENC  =       183.90812656
  PAW double counting   =      3865.57804258    -3815.84821480
  entropy T*S    EENTRO =        -0.02674029
  eigenvalues    EBANDS =       -45.81570241
  atomic energy  EATOM  =      4831.84262874
  Solvation  Ediel_sol  =         0.00000000
  ---------------------------------------------------
  free energy    TOTEN  =       442.05087995 eV

  energy without entropy =      442.07762024  energy(sigma->0) =      442.06425010


--------------------------------------------------------------------------------------------------------




--------------------------------------- Iteration      1(   2)  ---------------------------------------


     EDDAV:  cpu time    0.1393: real time    0.1413
       DOS:  cpu time    0.0003: real time    0.0003
    --------------------------------------------
      LOOP:  cpu time    0.1397: real time    0.1417

 eigenvalue-minimisations  :   160
 total energy-change (2. order) :-0.4557584E+03  (-0.4449498E+03)
 number of electron      52.0000000 magnetization 
 augmentation part       52.0000000 magnetization 

 Free energy of the ion-electron system (eV)
  ---------------------------------------------------
  alpha Z        PSCENC =       160.27286088
  Ewald energy   TEWEN  =     -2671.48696594
  -Hartree energ DENC   =     -2066.37315537
  -exchange      EXHF   =         0.00000000
  -V(xc)+E(xc)   XCENC  =       183.90812656
  PAW double counting   =      3865.57804258    -3815.84821480
  entropy T*S    EENTRO =        -0.00049432
  eigenvalues    EBANDS =      -501.60032938
  atomic energy  EATOM  =      4831.84262874
  Solvation  Ediel_sol  =         0.00000000
  ---------------------------------------------------
  free energy    TOTEN  =       -13.70750105 eV

  energy without entropy =      -13.70700673  energy(sigma->0) =      -13.70725389


--------------------------------------------------------------------------------------------------------




--------------------------------------- Iteration      1(   3)  ---------------------------------------


     EDDAV:  cpu time    0.1450: real time    0.1478
       DOS:  cpu time    0.0003: real time    0.0003
    --------------------------------------------
      LOOP:  cpu time    0.1451: real time    0.1480

 eigenvalue-minimisations  :   168
 total energy-change (2. order) :-0.2335543E+02  (-0.2307046E+02)
 number of electron      52.0000000 magnetization 
 augmentation part       52.0000000 magnetization 

 Free energy of the ion-electron system (eV)
  ---------------------------------------------------
  alpha Z        PSCENC =       160.27286088
  Ewald energy   TEWEN  =     -2671.48696594
  -Hartree energ DENC   =     -2066.37315537
  -exchange      EXHF   =         0.00000000
  -V(xc)+E(xc)   XCENC  =       183.90812656
  PAW double counting   =      3865.57804258    -3815.84821480
  entropy T*S    EENTRO =        -0.00002091
  eigenvalues    EBANDS =      -524.95623301
  atomic energy  EATOM  =      4831.84262874
  Solvation  Ediel_sol  =         0.00000000
  ---------------------------------------------------
  free energy    TOTEN  =       -37.06293128 eV

  energy without entropy =      -37.06291036  energy(sigma->0) =      -37.06292082


--------------------------------------------------------------------------------------------------------




--------------------------------------- Iteration      1(   4)  ---------------------------------------


     EDDAV:  cpu time    0.1444: real time    0.1485
       DOS:  cpu time    0.0003: real time    0.0003
    --------------------------------------------
      LOOP:  cpu time    0.1447: real time    0.1488

 eigenvalue-minimisations  :   168
 total energy-change (2. order) :-0.5826985E+00  (-0.5806170E+00)
 number of electron      52.0000000 magnetization 
 augmentation part       52.0000000 magnetization 

 Free energy of the ion-electron system (eV)
  ---------------------------------------------------
  alpha Z        PSCENC =       160.27286088
  Ewald energy   TEWEN  =     -2671.48696594
  -Hartree energ DENC   =     -2066.37315537
  -exchange      EXHF   =         0.00000000
  -V(xc)+E(xc)   XCENC  =       183.90812656
  PAW double counting   =      3865.57804258    -3815.84821480
  entropy T*S    EENTRO =        -0.00007129
  eigenvalues    EBANDS =      -525.53888118
  atomic energy  EATOM  =      4831.84262874
  Solvation  Ediel_sol  =         0.00000000
  ---------------------------------------------------
  free energy    TOTEN  =       -37.64562982 eV

  energy without entropy =      -37.64555853  energy(sigma->0) =      -37.64559418


--------------------------------------------------------------------------------------------------------




--------------------------------------- Iteration      1(   5)  ---------------------------------------


     EDDAV:  cpu time    0.1499: real time    0.1537
       DOS:  cpu time    0.0004: real time    0.0004
    CHARGE:  cpu time    0.0229: real time    0.0229
    MIXING:  cpu time    0.0014: real time    0.0014
    --------------------------------------------
      LOOP:  cpu time    0.1745: real time    0.1784

 eigenvalue-minimisations  :   176
 total energy-change (2. order) :-0.1887091E-01  (-0.1886666E-01)
 number of electron      51.9999992 magnetization 
 augmentation part        1.0700428 magnetization 

 Broyden mixing:
  rms(total) = 0.38163E+01    rms(broyden)= 0.38163E+01
  rms(prec ) = 0.39123E+01
  weight for this iteration     100.00

 Free energy of the ion-electron system (eV)
  ---------------------------------------------------
  alpha Z        PSCENC =       160.27286088
  Ewald energy   TEWEN  =     -2671.48696594
  -Hartree energ DENC   =     -2066.37315537
  -exchange      EXHF   =         0.00000000
  -V(xc)+E(xc)   XCENC  =       183.90812656
  PAW double counting   =      3865.57804258    -3815.84821480
  entropy T*S    EENTRO =        -0.00007246
  eigenvalues    EBANDS =      -525.55775092
  atomic energy  EATOM  =      4831.84262874
  Solvation  Ediel_sol  =         0.00000000
  ---------------------------------------------------
  free energy    TOTEN  =       -37.66450073 eV

  energy without entropy =      -37.66442827  energy(sigma->0) =      -37.66446450


--------------------------------------------------------------------------------------------------------




--------------------------------------- Iteration      1(   6)  ---------------------------------------


    POTLOK:  cpu time    0.0551: real time    0.0593
    SETDIJ:  cpu time    0.0053: real time    0.0053
     EDDAV:  cpu time    0.1345: real time    0.1348
       DOS:  cpu time    0.0005: real time    0.0005
    CHARGE:  cpu time    0.0226: real time    0.0226
    MIXING:  cpu time    0.0015: real time    0.0015
    --------------------------------------------
      LOOP:  cpu time    0.2195: real time    0.2239

 eigenvalue-minimisations  :   152
 total energy-change (2. order) : 0.2049865E+01  (-0.1485745E+01)
 number of electron      51.9999991 magnetization 
 augmentation part        1.6473945 magnetization 

 Broyden mixing:
  rms(total) = 0.26418E+01    rms(broyden)= 0.26418E+01
  rms(prec ) = 0.27206E+01
  weight for this iteration     100.00

 eigenvalues of (default mixing * dielectric matrix)
  average eigenvalue GAMMA=   1.3894
  1.3894

 Free energy of the ion-electron system (eV)
  ---------------------------------------------------
  alpha Z        PSCENC =       160.27286088
  Ewald energy   TEWEN  =     -2671.48696594
  -Hartree energ DENC   =     -2025.36297900
  -exchange      EXHF   =         0.00000000
  -V(xc)+E(xc)   XCENC  =       182.56222853
  PAW double counting   =      4906.93885085    -4862.02298775
  entropy T*S    EENTRO =        -0.01078134
  eigenvalues    EBANDS =      -558.34749050
  atomic energy  EATOM  =      4831.84262874
  Solvation  Ediel_sol  =         0.00000000
  ---------------------------------------------------
  free energy    TOTEN  =       -35.61463554 eV

  energy without entropy =      -35.60385419  energy(sigma->0) =      -35.60924487


--------------------------------------------------------------------------------------------------------




--------------------------------------- Iteration      1(   7)  ---------------------------------------


    POTLOK:  cpu time    0.0552: real time    0.0609
    SETDIJ:  cpu time    0.0054: real time    0.0054
     EDDAV:  cpu time    0.1332: real time    0.1332
       DOS:  cpu time    0.0003: real time    0.0003
    CHARGE:  cpu time    0.0222: real time    0.0222
    MIXING:  cpu time    0.0014: real time    0.0014
    --------------------------------------------
      LOOP:  cpu time    0.2177: real time    0.2233

 eigenvalue-minimisations  :   152
 total energy-change (2. order) :-0.9571355E+00  (-0.1956975E+01)
 number of electron      51.9999992 magnetization 
 augmentation part        1.6819821 magnetization 

 Broyden mixing:
  rms(total) = 0.97971E+00    rms(broyden)= 0.97970E+00
  rms(prec ) = 0.15836E+01
  weight for this iteration     100.00

 eigenvalues of (default mixing * dielectric matrix)
  average eigenvalue GAMMA=   1.2593
  1.8886  0.6300

 Free energy of the ion-electron system (eV)
  ---------------------------------------------------
  alpha Z        PSCENC =       160.27286088
  Ewald energy   TEWEN  =     -2671.48696594
  -Hartree energ DENC   =     -2049.34457039
  -exchange      EXHF   =         0.00000000
  -V(xc)+E(xc)   XCENC  =       182.73208056
  PAW double counting   =      6048.77762556    -6003.79118720
  entropy T*S    EENTRO =        -0.00008339
  eigenvalues    EBANDS =      -535.57415988
  atomic energy  EATOM  =      4831.84262874
  Solvation  Ediel_sol  =         0.00000000
  ---------------------------------------------------
  free energy    TOTEN  =       -36.57177106 eV

  energy without entropy =      -36.57168767  energy(sigma->0) =      -36.57172937


--------------------------------------------------------------------------------------------------------




--------------------------------------- Iteration      1(   8)  ---------------------------------------


    POTLOK:  cpu time    0.0562: real time    0.0597
    SETDIJ:  cpu time    0.0057: real time    0.0057
     EDDAV:  cpu time    0.1465: real time    0.1465
       DOS:  cpu time    0.0004: real time    0.0004
    CHARGE:  cpu time    0.0228: real time    0.0228
    MIXING:  cpu time    0.0015: real time    0.0015
    --------------------------------------------
      LOOP:  cpu time    0.2330: real time    0.2365

 eigenvalue-minimisations  :   168
 total energy-change (2. order) :-0.3153299E+01  (-0.4379440E+01)
 number of electron      51.9999991 magnetization 
 augmentation part        1.1181033 magnetization 

 Broyden mixing:
  rms(total) = 0.25453E+01    rms(broyden)= 0.25452E+01
  rms(prec ) = 0.45982E+01
  weight for this iteration     100.00

 eigenvalues of (default mixing * dielectric matrix)
  average eigenvalue GAMMA=   1.0702
  2.3079  0.7062  0.1964

 Free energy of the ion-electron system (eV)
  ---------------------------------------------------
  alpha Z        PSCENC =       160.27286088
  Ewald energy   TEWEN  =     -2671.48696594
  -Hartree energ DENC   =     -2049.61974849
  -exchange      EXHF   =         0.00000000
  -V(xc)+E(xc)   XCENC  =       183.01068616
  PAW double counting   =      6852.61303654    -6807.59956407
  entropy T*S    EENTRO =        -0.00456730
  eigenvalues    EBANDS =      -538.75343617
  atomic energy  EATOM  =      4831.84262874
  Solvation  Ediel_sol  =         0.00000000
  ---------------------------------------------------
  free energy    TOTEN  =       -39.72506967 eV

  energy without entropy =      -39.72050236  energy(sigma->0) =      -39.72278601


--------------------------------------------------------------------------------------------------------




--------------------------------------- Iteration      1(   9)  ---------------------------------------


    POTLOK:  cpu time    0.0561: real time    0.0588
    SETDIJ:  cpu time    0.0054: real time    0.0053
     EDDAV:  cpu time    0.1338: real time    0.1338
       DOS:  cpu time    0.0003: real time    0.0003
    CHARGE:  cpu time    0.0222: real time    0.0222
    MIXING:  cpu time    0.0015: real time    0.0015
    --------------------------------------------
      LOOP:  cpu time    0.2192: real time    0.2218

 eigenvalue-minimisations  :   152
 total energy-change (2. order) : 0.4246148E+01  (-0.7730409E+01)
 number of electron      51.9999991 magnetization 
 augmentation part        1.4970063 magnetization 

 Broyden mixing:
  rms(total) = 0.53904E+00    rms(broyden)= 0.53895E+00
  rms(prec ) = 0.75184E+00
  weight for this iteration     100.00

 eigenvalues of (default mixing * dielectric matrix)
  average eigenvalue GAMMA=   0.9104
  2.2332  0.6204  0.6204  0.1675

 Free energy of the ion-electron system (eV)
  ---------------------------------------------------
  alpha Z        PSCENC =       160.27286088
  Ewald energy   TEWEN  =     -2671.48696594
  -Hartree energ DENC   =     -2052.22280838
  -exchange      EXHF   =         0.00000000
  -V(xc)+E(xc)   XCENC  =       182.97259772
  PAW double counting   =      7345.44986465    -7301.02072048
  entropy T*S    EENTRO =        -0.00000214
  eigenvalues    EBANDS =      -531.28637625
  atomic energy  EATOM  =      4831.84262874
  Solvation  Ediel_sol  =         0.00000000
  ---------------------------------------------------
  free energy    TOTEN  =       -35.47892120 eV

  energy without entropy =      -35.47891906  energy(sigma->0) =      -35.47892013


--------------------------------------------------------------------------------------------------------




--------------------------------------- Iteration      1(  10)  ---------------------------------------


    POTLOK:  cpu time    0.0552: real time    0.0581
    SETDIJ:  cpu time    0.0053: real time    0.0053
     EDDAV:  cpu time    0.1444: real time    0.1444
       DOS:  cpu time    0.0003: real time    0.0003
    CHARGE:  cpu time    0.0222: real time    0.0222
    MIXING:  cpu time    0.0015: real time    0.0015
    --------------------------------------------
      LOOP:  cpu time    0.2289: real time    0.2318

 eigenvalue-minimisations  :   168
 total energy-change (2. order) : 0.2088443E+00  (-0.1006356E+00)
 number of electron      51.9999991 magnetization 
 augmentation part        1.5912890 magnetization 

 Broyden mixing:
  rms(total) = 0.43602E+00    rms(broyden)= 0.43602E+00
  rms(prec ) = 0.56814E+00
  weight for this iteration     100.00

 eigenvalues of (default mixing * dielectric matrix)
  average eigenvalue GAMMA=   0.8541
  2.1982  0.6420  0.6420  0.6159  0.1723

 Free energy of the ion-electron system (eV)
  ---------------------------------------------------
  alpha Z        PSCENC =       160.27286088
  Ewald energy   TEWEN  =     -2671.48696594
  -Hartree energ DENC   =     -2043.31838572
  -exchange      EXHF   =         0.00000000
  -V(xc)+E(xc)   XCENC  =       182.75785516
  PAW double counting   =      7317.24488987    -7273.27770952
  entropy T*S    EENTRO =        -0.00035807
  eigenvalues    EBANDS =      -539.30489224
  atomic energy  EATOM  =      4831.84262874
  Solvation  Ediel_sol  =         0.00000000
  ---------------------------------------------------
  free energy    TOTEN  =       -35.27007685 eV

  energy without entropy =      -35.26971878  energy(sigma->0) =      -35.26989782


--------------------------------------------------------------------------------------------------------




--------------------------------------- Iteration      1(  11)  ---------------------------------------


    POTLOK:  cpu time    0.0550: real time    0.0583
    SETDIJ:  cpu time    0.0054: real time    0.0054
     EDDAV:  cpu time    0.1441: real time    0.1464
       DOS:  cpu time    0.0003: real time    0.0003
    CHARGE:  cpu time    0.0222: real time    0.0222
    MIXING:  cpu time    0.0015: real time    0.0015
    --------------------------------------------
      LOOP:  cpu time    0.2286: real time    0.2341

 eigenvalue-minimisations  :   168
 total energy-change (2. order) : 0.5973023E-01  (-0.1243918E-01)
 number of electron      51.9999991 magnetization 
 augmentation part        1.5760716 magnetization 

 Broyden mixing:
  rms(total) = 0.33114E+00    rms(broyden)= 0.33114E+00
  rms(prec ) = 0.43057E+00
  weight for this iteration     100.00

 eigenvalues of (default mixing * dielectric matrix)
  average eigenvalue GAMMA=   1.0294
  1.9425  1.3461  1.3461  0.6854  0.6854  0.1711

 Free energy of the ion-electron system (eV)
  ---------------------------------------------------
  alpha Z        PSCENC =       160.27286088
  Ewald energy   TEWEN  =     -2671.48696594
  -Hartree energ DENC   =     -2042.21030288
  -exchange      EXHF   =         0.00000000
  -V(xc)+E(xc)   XCENC  =       182.74009996
  PAW double counting   =      7272.83624540    -7228.86429074
  entropy T*S    EENTRO =        -0.00520001
  eigenvalues    EBANDS =      -540.33542204
  atomic energy  EATOM  =      4831.84262874
  Solvation  Ediel_sol  =         0.00000000
  ---------------------------------------------------
  free energy    TOTEN  =       -35.21034662 eV

  energy without entropy =      -35.20514662  energy(sigma->0) =      -35.20774662


--------------------------------------------------------------------------------------------------------




--------------------------------------- Iteration      1(  12)  ---------------------------------------


    POTLOK:  cpu time    0.0552: real time    0.0582
    SETDIJ:  cpu time    0.0054: real time    0.0054
     EDDAV:  cpu time    0.1452: real time    0.1452
       DOS:  cpu time    0.0003: real time    0.0003
    CHARGE:  cpu time    0.0222: real time    0.0222
    MIXING:  cpu time    0.0016: real time    0.0016
    --------------------------------------------
      LOOP:  cpu time    0.2298: real time    0.2329

 eigenvalue-minimisations  :   168
 total energy-change (2. order) : 0.6696434E-01  (-0.3112550E-01)
 number of electron      51.9999991 magnetization 
 augmentation part        1.5931892 magnetization 

 Broyden mixing:
  rms(total) = 0.84990E-01    rms(broyden)= 0.84986E-01
  rms(prec ) = 0.11850E+00
  weight for this iteration     100.00

 eigenvalues of (default mixing * dielectric matrix)
  average eigenvalue GAMMA=   1.0475
  2.3407  1.4912  1.0244  1.0244  0.1711  0.6404  0.6404

 Free energy of the ion-electron system (eV)
  ---------------------------------------------------
  alpha Z        PSCENC =       160.27286088
  Ewald energy   TEWEN  =     -2671.48696594
  -Hartree energ DENC   =     -2038.07210610
  -exchange      EXHF   =         0.00000000
  -V(xc)+E(xc)   XCENC  =       182.65433036
  PAW double counting   =      7204.31159887    -7160.57325120
  entropy T*S    EENTRO =        -0.02045136
  eigenvalues    EBANDS =      -544.07202653
  atomic energy  EATOM  =      4831.84262874
  Solvation  Ediel_sol  =         0.00000000
  ---------------------------------------------------
  free energy    TOTEN  =       -35.14338228 eV

  energy without entropy =      -35.12293092  energy(sigma->0) =      -35.13315660


--------------------------------------------------------------------------------------------------------




--------------------------------------- Iteration      1(  13)  ---------------------------------------


    POTLOK:  cpu time    0.0553: real time    0.0588
    SETDIJ:  cpu time    0.0054: real time    0.0054
     EDDAV:  cpu time    0.1494: real time    0.1494
       DOS:  cpu time    0.0004: real time    0.0004
    CHARGE:  cpu time    0.0222: real time    0.0222
    MIXING:  cpu time    0.0016: real time    0.0016
    --------------------------------------------
      LOOP:  cpu time    0.2344: real time    0.2379

 eigenvalue-minimisations  :   176
 total energy-change (2. order) :-0.5470826E-03  (-0.3995869E-02)
 number of electron      51.9999991 magnetization 
 augmentation part        1.5341571 magnetization 

 Broyden mixing:
  rms(total) = 0.44842E+00    rms(broyden)= 0.44842E+00
  rms(prec ) = 0.45837E+00
  weight for this iteration     100.00

 eigenvalues of (default mixing * dielectric matrix)
  average eigenvalue GAMMA=   0.9340
  2.2107  1.5932  1.0436  1.0436  0.6489  0.6489  0.1711  0.1123

 Free energy of the ion-electron system (eV)
  ---------------------------------------------------
  alpha Z        PSCENC =       160.27286088
  Ewald energy   TEWEN  =     -2671.48696594
  -Hartree energ DENC   =     -2037.99594529
  -exchange      EXHF   =         0.00000000
  -V(xc)+E(xc)   XCENC  =       182.66560253
  PAW double counting   =      7256.75313376    -7213.03561701
  entropy T*S    EENTRO =        -0.02818623
  eigenvalues    EBANDS =      -544.13144081
  atomic energy  EATOM  =      4831.84262874
  Solvation  Ediel_sol  =         0.00000000
  ---------------------------------------------------
  free energy    TOTEN  =       -35.14392936 eV

  energy without entropy =      -35.11574313  energy(sigma->0) =      -35.12983625


--------------------------------------------------------------------------------------------------------




--------------------------------------- Iteration      1(  14)  ---------------------------------------


    POTLOK:  cpu time    0.0552: real time    0.0584
    SETDIJ:  cpu time    0.0053: real time    0.0053
     EDDAV:  cpu time    0.1335: real time    0.1335
       DOS:  cpu time    0.0003: real time    0.0003
    CHARGE:  cpu time    0.0222: real time    0.0222
    MIXING:  cpu time    0.0017: real time    0.0017
    --------------------------------------------
      LOOP:  cpu time    0.2183: real time    0.2215

 eigenvalue-minimisations  :   152
 total energy-change (2. order) : 0.2914740E-03  (-0.2175397E-03)
 number of electron      51.9999991 magnetization 
 augmentation part        1.5363702 magnetization 

 Broyden mixing:
  rms(total) = 0.43903E+00    rms(broyden)= 0.43903E+00
  rms(prec ) = 0.44848E+00
  weight for this iteration     100.00

 eigenvalues of (default mixing * dielectric matrix)
  average eigenvalue GAMMA=   0.8311
  2.2089  1.6108  1.0397  1.0397  0.6492  0.6492  0.1711  0.1040  0.0069

 Free energy of the ion-electron system (eV)
  ---------------------------------------------------
  alpha Z        PSCENC =       160.27286088
  Ewald energy   TEWEN  =     -2671.48696594
  -Hartree energ DENC   =     -2037.98026527
  -exchange      EXHF   =         0.00000000
  -V(xc)+E(xc)   XCENC  =       182.66540037
  PAW double counting   =      7258.72160859    -7215.00588002
  entropy T*S    EENTRO =        -0.02820682
  eigenvalues    EBANDS =      -544.14481842
  atomic energy  EATOM  =      4831.84262874
  Solvation  Ediel_sol  =         0.00000000
  ---------------------------------------------------
  free energy    TOTEN  =       -35.14363789 eV

  energy without entropy =      -35.11543107  energy(sigma->0) =      -35.12953448


--------------------------------------------------------------------------------------------------------




--------------------------------------- Iteration      1(  15)  ---------------------------------------


    POTLOK:  cpu time    0.0550: real time    0.0588
    SETDIJ:  cpu time    0.0054: real time    0.0054
     EDDAV:  cpu time    0.1553: real time    0.1576
       DOS:  cpu time    0.0003: real time    0.0003
    CHARGE:  cpu time    0.0222: real time    0.0222
    MIXING:  cpu time    0.0017: real time    0.0017
    --------------------------------------------
      LOOP:  cpu time    0.2400: real time    0.2460

 eigenvalue-minimisations  :   184
 total energy-change (2. order) : 0.1353427E-02  (-0.7867423E-04)
 number of electron      51.9999991 magnetization 
 augmentation part        1.5466673 magnetization 

 Broyden mixing:
  rms(total) = 0.36906E+00    rms(broyden)= 0.36906E+00
  rms(prec ) = 0.37669E+00
  weight for this iteration     100.00

 eigenvalues of (default mixing * dielectric matrix)
  average eigenvalue GAMMA=   0.9465
  2.4056  1.7381  0.7634  1.1246  1.1246  0.6314  0.6214  0.6214  0.1711  0.2629

 Free energy of the ion-electron system (eV)
  ---------------------------------------------------
  alpha Z        PSCENC =       160.27286088
  Ewald energy   TEWEN  =     -2671.48696594
  -Hartree energ DENC   =     -2038.05366793
  -exchange      EXHF   =         0.00000000
  -V(xc)+E(xc)   XCENC  =       182.66663489
  PAW double counting   =      7254.51267453    -7210.79241427
  entropy T*S    EENTRO =        -0.02801160
  eigenvalues    EBANDS =      -544.07602377
  atomic energy  EATOM  =      4831.84262874
  Solvation  Ediel_sol  =         0.00000000
  ---------------------------------------------------
  free energy    TOTEN  =       -35.14228446 eV

  energy without entropy =      -35.11427286  energy(sigma->0) =      -35.12827866


--------------------------------------------------------------------------------------------------------




--------------------------------------- Iteration      1(  16)  ---------------------------------------


    POTLOK:  cpu time    0.0550: real time    0.0587
    SETDIJ:  cpu time    0.0054: real time    0.0054
     EDDAV:  cpu time    0.1336: real time    0.1336
       DOS:  cpu time    0.0003: real time    0.0003
    CHARGE:  cpu time    0.0222: real time    0.0222
    MIXING:  cpu time    0.0018: real time    0.0018
    --------------------------------------------
      LOOP:  cpu time    0.2183: real time    0.2220

 eigenvalue-minimisations  :   152
 total energy-change (2. order) :-0.1644621E-02  (-0.1068081E-02)
 number of electron      51.9999991 magnetization 
 augmentation part        1.5613980 magnetization 

 Broyden mixing:
  rms(total) = 0.22300E+00    rms(broyden)= 0.22300E+00
  rms(prec ) = 0.23421E+00
  weight for this iteration     100.00

 eigenvalues of (default mixing * dielectric matrix)
  average eigenvalue GAMMA=   1.0405
  2.3792  1.1488  1.5228  1.5228  1.2303  1.2303  0.7137  0.6440  0.6440  0.1711
  0.2385

 Free energy of the ion-electron system (eV)
  ---------------------------------------------------
  alpha Z        PSCENC =       160.27286088
  Ewald energy   TEWEN  =     -2671.48696594
  -Hartree energ DENC   =     -2039.35398932
  -exchange      EXHF   =         0.00000000
  -V(xc)+E(xc)   XCENC  =       182.70754238
  PAW double counting   =      7264.14938145    -7220.38037287
  entropy T*S    EENTRO =        -0.02500310
  eigenvalues    EBANDS =      -542.87001131
  atomic energy  EATOM  =      4831.84262874
  Solvation  Ediel_sol  =         0.00000000
  ---------------------------------------------------
  free energy    TOTEN  =       -35.14392908 eV

  energy without entropy =      -35.11892599  energy(sigma->0) =      -35.13142754


--------------------------------------------------------------------------------------------------------




--------------------------------------- Iteration      1(  17)  ---------------------------------------


    POTLOK:  cpu time    0.0550: real time    0.0575
    SETDIJ:  cpu time    0.0053: real time    0.0053
     EDDAV:  cpu time    0.1336: real time    0.1336
       DOS:  cpu time    0.0004: real time    0.0004
    CHARGE:  cpu time    0.0222: real time    0.0222
    MIXING:  cpu time    0.0018: real time    0.0018
    --------------------------------------------
      LOOP:  cpu time    0.2183: real time    0.2207

 eigenvalue-minimisations  :   152
 total energy-change (2. order) :-0.6125833E-02  (-0.8199982E-03)
 number of electron      51.9999991 magnetization 
 augmentation part        1.5643594 magnetization 

 Broyden mixing:
  rms(total) = 0.37668E+00    rms(broyden)= 0.37668E+00
  rms(prec ) = 0.38365E+00
  weight for this iteration     100.00

 eigenvalues of (default mixing * dielectric matrix)
  average eigenvalue GAMMA=   0.9544
  2.3776  1.1425  1.5211  1.5211  1.2310  1.2310  0.7133  0.6441  0.6441  0.1711
  0.2385  0.0177

 Free energy of the ion-electron system (eV)
  ---------------------------------------------------
  alpha Z        PSCENC =       160.27286088
  Ewald energy   TEWEN  =     -2671.48696594
  -Hartree energ DENC   =     -2039.41228445
  -exchange      EXHF   =         0.00000000
  -V(xc)+E(xc)   XCENC  =       182.71515387
  PAW double counting   =      7208.95076429    -7165.19108911
  entropy T*S    EENTRO =        -0.02494207
  eigenvalues    EBANDS =      -542.81618113
  atomic energy  EATOM  =      4831.84262874
  Solvation  Ediel_sol  =         0.00000000
  ---------------------------------------------------
  free energy    TOTEN  =       -35.15005492 eV

  energy without entropy =      -35.12511285  energy(sigma->0) =      -35.13758388


--------------------------------------------------------------------------------------------------------




--------------------------------------- Iteration      1(  18)  ---------------------------------------


    POTLOK:  cpu time    0.0549: real time    0.0577
    SETDIJ:  cpu time    0.0054: real time    0.0054
     EDDAV:  cpu time    0.1493: real time    0.1493
       DOS:  cpu time    0.0004: real time    0.0004
    CHARGE:  cpu time    0.0221: real time    0.0222
    MIXING:  cpu time    0.0019: real time    0.0019
    --------------------------------------------
      LOOP:  cpu time    0.2340: real time    0.2368

 eigenvalue-minimisations  :   176
 total energy-change (2. order) :-0.4057464E-03  (-0.3841522E-04)
 number of electron      51.9999991 magnetization 
 augmentation part        1.5642830 magnetization 

 Broyden mixing:
  rms(total) = 0.38399E+00    rms(broyden)= 0.38399E+00
  rms(prec ) = 0.39084E+00
  weight for this iteration     100.00

 eigenvalues of (default mixing * dielectric matrix)
  average eigenvalue GAMMA=   0.8960
  2.3802  1.1478  1.5169  1.5169  1.2330  1.2330  0.7143  0.6443  0.6443  0.1711
  0.2386  0.1038  0.1038

 Free energy of the ion-electron system (eV)
  ---------------------------------------------------
  alpha Z        PSCENC =       160.27286088
  Ewald energy   TEWEN  =     -2671.48696594
  -Hartree energ DENC   =     -2039.40233560
  -exchange      EXHF   =         0.00000000
  -V(xc)+E(xc)   XCENC  =       182.71511974
  PAW double counting   =      7206.76336518    -7163.00421877
  entropy T*S    EENTRO =        -0.02500638
  eigenvalues    EBANDS =      -542.82590852
  atomic energy  EATOM  =      4831.84262874
  Solvation  Ediel_sol  =         0.00000000
  ---------------------------------------------------
  free energy    TOTEN  =       -35.15046066 eV

  energy without entropy =      -35.12545429  energy(sigma->0) =      -35.13795747


--------------------------------------------------------------------------------------------------------




--------------------------------------- Iteration      1(  19)  ---------------------------------------


    POTLOK:  cpu time    0.0551: real time    0.0576
    SETDIJ:  cpu time    0.0054: real time    0.0054
     EDDAV:  cpu time    0.1333: real time    0.1335
       DOS:  cpu time    0.0004: real time    0.0004
    CHARGE:  cpu time    0.0225: real time    0.0225
    MIXING:  cpu time    0.0021: real time    0.0021
    --------------------------------------------
      LOOP:  cpu time    0.2187: real time    0.2214

 eigenvalue-minimisations  :   144
 total energy-change (2. order) :-0.4935294E-04  (-0.8015088E-06)
 number of electron      51.9999991 magnetization 
 augmentation part        1.5641575 magnetization 

 Broyden mixing:
  rms(total) = 0.38572E+00    rms(broyden)= 0.38572E+00
  rms(prec ) = 0.39253E+00
  weight for this iteration     100.00

 eigenvalues of (default mixing * dielectric matrix)
  average eigenvalue GAMMA=   0.9829
  2.5101  1.0600  1.0600  1.7581  1.4730  1.1691  1.1691  0.7131  0.6436  0.6436
  0.5752  0.5752  0.1711  0.2387

 Free energy of the ion-electron system (eV)
  ---------------------------------------------------
  alpha Z        PSCENC =       160.27286088
  Ewald energy   TEWEN  =     -2671.48696594
  -Hartree energ DENC   =     -2039.39510228
  -exchange      EXHF   =         0.00000000
  -V(xc)+E(xc)   XCENC  =       182.71489170
  PAW double counting   =      7206.47125125    -7162.71218729
  entropy T*S    EENTRO =        -0.02503625
  eigenvalues    EBANDS =      -542.83285082
  atomic energy  EATOM  =      4831.84262874
  Solvation  Ediel_sol  =         0.00000000
  ---------------------------------------------------
  free energy    TOTEN  =       -35.15051002 eV

  energy without entropy =      -35.12547377  energy(sigma->0) =      -35.13799189


--------------------------------------------------------------------------------------------------------




--------------------------------------- Iteration      1(  20)  ---------------------------------------


    POTLOK:  cpu time    0.0550: real time    0.0609
    SETDIJ:  cpu time    0.0054: real time    0.0054
     EDDAV:  cpu time    0.1444: real time    0.1444
       DOS:  cpu time    0.0003: real time    0.0003
    CHARGE:  cpu time    0.0222: real time    0.0222
    MIXING:  cpu time    0.0020: real time    0.0020
    --------------------------------------------
      LOOP:  cpu time    0.2293: real time    0.2352

 eigenvalue-minimisations  :   168
 total energy-change (2. order) : 0.1370562E-02  (-0.7249162E-04)
 number of electron      51.9999991 magnetization 
 augmentation part        1.5627643 magnetization 

 Broyden mixing:
  rms(total) = 0.38108E+00    rms(broyden)= 0.38108E+00
  rms(prec ) = 0.38688E+00
  weight for this iteration     100.00

 eigenvalues of (default mixing * dielectric matrix)
  average eigenvalue GAMMA=   1.1026
  1.7177  1.7177  2.2681  1.9478  1.9478  1.0602  1.0602  0.9205  0.9205  0.1711
  0.6474  0.6474  0.7000  0.5739  0.2387

 Free energy of the ion-electron system (eV)
  ---------------------------------------------------
  alpha Z        PSCENC =       160.27286088
  Ewald energy   TEWEN  =     -2671.48696594
  -Hartree energ DENC   =     -2039.36095382
  -exchange      EXHF   =         0.00000000
  -V(xc)+E(xc)   XCENC  =       182.71604776
  PAW double counting   =      7213.76624703    -7170.01926563
  entropy T*S    EENTRO =        -0.02555671
  eigenvalues    EBANDS =      -542.85418176
  atomic energy  EATOM  =      4831.84262874
  Solvation  Ediel_sol  =         0.00000000
  ---------------------------------------------------
  free energy    TOTEN  =       -35.14913945 eV

  energy without entropy =      -35.12358274  energy(sigma->0) =      -35.13636110


--------------------------------------------------------------------------------------------------------




--------------------------------------- Iteration      1(  21)  ---------------------------------------


    POTLOK:  cpu time    0.0551: real time    0.0584
    SETDIJ:  cpu time    0.0054: real time    0.0054
     EDDAV:  cpu time    0.1448: real time    0.1448
       DOS:  cpu time    0.0003: real time    0.0003
    CHARGE:  cpu time    0.0225: real time    0.0225
    MIXING:  cpu time    0.0021: real time    0.0021
    --------------------------------------------
      LOOP:  cpu time    0.2301: real time    0.2335

 eigenvalue-minimisations  :   168
 total energy-change (2. order) : 0.1157134E-01  (-0.2547303E-02)
 number of electron      51.9999991 magnetization 
 augmentation part        1.5738889 magnetization 

 Broyden mixing:
  rms(total) = 0.88644E-01    rms(broyden)= 0.88644E-01
  rms(prec ) = 0.98239E-01
  weight for this iteration     100.00

 eigenvalues of (default mixing * dielectric matrix)
  average eigenvalue GAMMA=   1.0525
  1.6118  1.6118  2.2194  2.2194  1.6280  1.1249  1.1249  0.7670  0.7670  0.1711
  0.6482  0.6482  0.7901  0.6716  0.5986  0.2387

 Free energy of the ion-electron system (eV)
  ---------------------------------------------------
  alpha Z        PSCENC =       160.27286088
  Ewald energy   TEWEN  =     -2671.48696594
  -Hartree energ DENC   =     -2039.42813406
  -exchange      EXHF   =         0.00000000
  -V(xc)+E(xc)   XCENC  =       182.71214752
  PAW double counting   =      7305.62732925    -7261.92103651
  entropy T*S    EENTRO =        -0.02434266
  eigenvalues    EBANDS =      -542.73205533
  atomic energy  EATOM  =      4831.84262874
  Solvation  Ediel_sol  =         0.00000000
  ---------------------------------------------------
  free energy    TOTEN  =       -35.13756811 eV

  energy without entropy =      -35.11322545  energy(sigma->0) =      -35.12539678


--------------------------------------------------------------------------------------------------------




--------------------------------------- Iteration      1(  22)  ---------------------------------------


    POTLOK:  cpu time    0.0551: real time    0.0580
    SETDIJ:  cpu time    0.0054: real time    0.0054
     EDDAV:  cpu time    0.1335: real time    0.1335
       DOS:  cpu time    0.0003: real time    0.0003
    CHARGE:  cpu time    0.0221: real time    0.0221
    MIXING:  cpu time    0.0022: real time    0.0022
    --------------------------------------------
      LOOP:  cpu time    0.2186: real time    0.2215

 eigenvalue-minimisations  :   152
 total energy-change (2. order) :-0.1354561E-03  (-0.1323176E-03)
 number of electron      51.9999991 magnetization 
 augmentation part        1.5720388 magnetization 

 Broyden mixing:
  rms(total) = 0.11786E+00    rms(broyden)= 0.11786E+00
  rms(prec ) = 0.12402E+00
  weight for this iteration     100.00

 eigenvalues of (default mixing * dielectric matrix)
  average eigenvalue GAMMA=   1.0602
  1.6583  1.6583  2.2644  1.9003  1.9003  0.9214  0.9214  1.0417  1.0417  0.1711
  0.8515  0.8515  0.6518  0.6518  0.7347  0.5645  0.2387

 Free energy of the ion-electron system (eV)
  ---------------------------------------------------
  alpha Z        PSCENC =       160.27286088
  Ewald energy   TEWEN  =     -2671.48696594
  -Hartree energ DENC   =     -2039.28241671
  -exchange      EXHF   =         0.00000000
  -V(xc)+E(xc)   XCENC  =       182.70816402
  PAW double counting   =      7288.97081173    -7245.25985622
  entropy T*S    EENTRO =        -0.02492228
  eigenvalues    EBANDS =      -542.87800779
  atomic energy  EATOM  =      4831.84262874
  Solvation  Ediel_sol  =         0.00000000
  ---------------------------------------------------
  free energy    TOTEN  =       -35.13770357 eV

  energy without entropy =      -35.11278129  energy(sigma->0) =      -35.12524243


--------------------------------------------------------------------------------------------------------




--------------------------------------- Iteration      1(  23)  ---------------------------------------


    POTLOK:  cpu time    0.0551: real time    0.0583
    SETDIJ:  cpu time    0.0054: real time    0.0054
     EDDAV:  cpu time    0.1390: real time    0.1390
       DOS:  cpu time    0.0003: real time    0.0003
    CHARGE:  cpu time    0.0221: real time    0.0221
    MIXING:  cpu time    0.0022: real time    0.0022
    --------------------------------------------
      LOOP:  cpu time    0.2240: real time    0.2273

 eigenvalue-minimisations  :   160
 total energy-change (2. order) : 0.1222672E-02  (-0.1470403E-03)
 number of electron      51.9999991 magnetization 
 augmentation part        1.5774194 magnetization 

 Broyden mixing:
  rms(total) = 0.47969E-01    rms(broyden)= 0.47969E-01
  rms(prec ) = 0.63071E-01
  weight for this iteration     100.00

 eigenvalues of (default mixing * dielectric matrix)
  average eigenvalue GAMMA=   1.1095
  1.6650  1.6650  2.3698  2.3698  1.8002  1.1085  1.1085  1.1408  1.1408  0.9087
  0.9087  0.8486  0.6459  0.6459  0.7262  0.1711  0.5091  0.2387

 Free energy of the ion-electron system (eV)
  ---------------------------------------------------
  alpha Z        PSCENC =       160.27286088
  Ewald energy   TEWEN  =     -2671.48696594
  -Hartree energ DENC   =     -2039.41996247
  -exchange      EXHF   =         0.00000000
  -V(xc)+E(xc)   XCENC  =       182.70896301
  PAW double counting   =      7311.45949469    -7267.74383465
  entropy T*S    EENTRO =        -0.02376249
  eigenvalues    EBANDS =      -542.74590267
  atomic energy  EATOM  =      4831.84262874
  Solvation  Ediel_sol  =         0.00000000
  ---------------------------------------------------
  free energy    TOTEN  =       -35.13648090 eV

  energy without entropy =      -35.11271840  energy(sigma->0) =      -35.12459965


--------------------------------------------------------------------------------------------------------




--------------------------------------- Iteration      1(  24)  ---------------------------------------


    POTLOK:  cpu time    0.0550: real time    0.0585
    SETDIJ:  cpu time    0.0054: real time    0.0054
     EDDAV:  cpu time    0.1494: real time    0.1516
       DOS:  cpu time    0.0004: real time    0.0004
    CHARGE:  cpu time    0.0221: real time    0.0221
    MIXING:  cpu time    0.0024: real time    0.0024
    --------------------------------------------
      LOOP:  cpu time    0.2346: real time    0.2404

 eigenvalue-minimisations  :   176
 total energy-change (2. order) : 0.1537148E-02  (-0.4266468E-03)
 number of electron      51.9999991 magnetization 
 augmentation part        1.5799757 magnetization 

 Broyden mixing:
  rms(total) = 0.73071E-01    rms(broyden)= 0.73071E-01
  rms(prec ) = 0.80022E-01
  weight for this iteration     100.00

 eigenvalues of (default mixing * dielectric matrix)
  average eigenvalue GAMMA=   1.0750
  1.6571  1.6571  2.2835  2.2835  2.0380  1.1362  1.1362  1.1550  1.1550  0.9301
  0.1711  0.8145  0.8145  0.7406  0.6425  0.6425  0.2387  0.4642  0.4642

 Free energy of the ion-electron system (eV)
  ---------------------------------------------------
  alpha Z        PSCENC =       160.27286088
  Ewald energy   TEWEN  =     -2671.48696594
  -Hartree energ DENC   =     -2039.51098085
  -exchange      EXHF   =         0.00000000
  -V(xc)+E(xc)   XCENC  =       182.70690595
  PAW double counting   =      7339.91747016    -7296.20179277
  entropy T*S    EENTRO =        -0.02350095
  eigenvalues    EBANDS =      -542.65156897
  atomic energy  EATOM  =      4831.84262874
  Solvation  Ediel_sol  =         0.00000000
  ---------------------------------------------------
  free energy    TOTEN  =       -35.13494375 eV

  energy without entropy =      -35.11144280  energy(sigma->0) =      -35.12319327


--------------------------------------------------------------------------------------------------------




--------------------------------------- Iteration      1(  25)  ---------------------------------------


    POTLOK:  cpu time    0.0551: real time    0.0587
    SETDIJ:  cpu time    0.0054: real time    0.0054
     EDDAV:  cpu time    0.1278: real time    0.1279
       DOS:  cpu time    0.0004: real time    0.0004
    CHARGE:  cpu time    0.0221: real time    0.0221
    MIXING:  cpu time    0.0024: real time    0.0024
    --------------------------------------------
      LOOP:  cpu time    0.2132: real time    0.2169

 eigenvalue-minimisations  :   144
 total energy-change (2. order) : 0.1686862E-03  (-0.5184387E-04)
 number of electron      51.9999991 magnetization 
 augmentation part        1.5790417 magnetization 

 Broyden mixing:
  rms(total) = 0.53016E-01    rms(broyden)= 0.53016E-01
  rms(prec ) = 0.61045E-01
  weight for this iteration     100.00

 eigenvalues of (default mixing * dielectric matrix)
  average eigenvalue GAMMA=   1.0403
  1.6556  1.6556  2.2587  2.2587  2.0187  1.1486  1.1486  1.1441  1.1441  0.9488
  0.8326  0.8326  0.7340  0.6441  0.6441  0.1711  0.2387  0.4809  0.4234  0.4234

 Free energy of the ion-electron system (eV)
  ---------------------------------------------------
  alpha Z        PSCENC =       160.27286088
  Ewald energy   TEWEN  =     -2671.48696594
  -Hartree energ DENC   =     -2039.51701588
  -exchange      EXHF   =         0.00000000
  -V(xc)+E(xc)   XCENC  =       182.70496472
  PAW double counting   =      7333.99169216    -7290.27086393
  entropy T*S    EENTRO =        -0.02365771
  eigenvalues    EBANDS =      -542.64841811
  atomic energy  EATOM  =      4831.84262874
  Solvation  Ediel_sol  =         0.00000000
  ---------------------------------------------------
  free energy    TOTEN  =       -35.13477506 eV

  energy without entropy =      -35.11111735  energy(sigma->0) =      -35.12294621


--------------------------------------------------------------------------------------------------------




--------------------------------------- Iteration      1(  26)  ---------------------------------------


    POTLOK:  cpu time    0.0550: real time    0.0582
    SETDIJ:  cpu time    0.0054: real time    0.0054
     EDDAV:  cpu time    0.1404: real time    0.1404
       DOS:  cpu time    0.0003: real time    0.0003
    CHARGE:  cpu time    0.0223: real time    0.0223
    MIXING:  cpu time    0.0025: real time    0.0025
    --------------------------------------------
      LOOP:  cpu time    0.2259: real time    0.2291

 eigenvalue-minimisations  :   160
 total energy-change (2. order) : 0.1169331E-03  (-0.5248751E-05)
 number of electron      51.9999991 magnetization 
 augmentation part        1.5785893 magnetization 

 Broyden mixing:
  rms(total) = 0.48657E-01    rms(broyden)= 0.48657E-01
  rms(prec ) = 0.56258E-01
  weight for this iteration     100.00

 eigenvalues of (default mixing * dielectric matrix)
  average eigenvalue GAMMA=   1.0426
  1.6536  1.6536  2.2596  2.2596  2.0647  1.1432  1.1432  1.1090  1.1090  0.7468
  0.7468  0.1711  0.9010  0.9010  0.6445  0.6445  0.7667  0.7667  0.2387  0.4858
  0.4858

 Free energy of the ion-electron system (eV)
  ---------------------------------------------------
  alpha Z        PSCENC =       160.27286088
  Ewald energy   TEWEN  =     -2671.48696594
  -Hartree energ DENC   =     -2039.50953236
  -exchange      EXHF   =         0.00000000
  -V(xc)+E(xc)   XCENC  =       182.70438629
  PAW double counting   =      7334.68736540    -7290.96676404
  entropy T*S    EENTRO =        -0.02379367
  eigenvalues    EBANDS =      -542.65484344
  atomic energy  EATOM  =      4831.84262874
  Solvation  Ediel_sol  =         0.00000000
  ---------------------------------------------------
  free energy    TOTEN  =       -35.13465813 eV

  energy without entropy =      -35.11086446  energy(sigma->0) =      -35.12276130


--------------------------------------------------------------------------------------------------------




--------------------------------------- Iteration      1(  27)  ---------------------------------------


    POTLOK:  cpu time    0.0551: real time    0.0582
    SETDIJ:  cpu time    0.0054: real time    0.0054
     EDDAV:  cpu time    0.1180: real time    0.1180
       DOS:  cpu time    0.0003: real time    0.0003
    CHARGE:  cpu time    0.0221: real time    0.0221
    MIXING:  cpu time    0.0026: real time    0.0026
    --------------------------------------------
      LOOP:  cpu time    0.2035: real time    0.2066

 eigenvalue-minimisations  :   128
 total energy-change (2. order) : 0.7327613E-04  (-0.1036836E-05)
 number of electron      51.9999991 magnetization 
 augmentation part        1.5781204 magnetization 

 Broyden mixing:
  rms(total) = 0.46775E-01    rms(broyden)= 0.46775E-01
  rms(prec ) = 0.53884E-01
  weight for this iteration     100.00

 eigenvalues of (default mixing * dielectric matrix)
  average eigenvalue GAMMA=   1.2261
  3.5929  2.9379  1.6502  1.6502  1.9064  1.9064  1.0754  1.0754  1.4266  1.4266
  1.1822  1.1822  0.1711  0.7979  0.7979  0.7277  0.7277  0.6436  0.6436  0.2387
  0.6489  0.5637

 Free energy of the ion-electron system (eV)
  ---------------------------------------------------
  alpha Z        PSCENC =       160.27286088
  Ewald energy   TEWEN  =     -2671.48696594
  -Hartree energ DENC   =     -2039.50508342
  -exchange      EXHF   =         0.00000000
  -V(xc)+E(xc)   XCENC  =       182.70401246
  PAW double counting   =      7335.63188932    -7291.91220291
  entropy T*S    EENTRO =        -0.02391966
  eigenvalues    EBANDS =      -542.65780432
  atomic energy  EATOM  =      4831.84262874
  Solvation  Ediel_sol  =         0.00000000
  ---------------------------------------------------
  free energy    TOTEN  =       -35.13458485 eV

  energy without entropy =      -35.11066520  energy(sigma->0) =      -35.12262502


--------------------------------------------------------------------------------------------------------




--------------------------------------- Iteration      1(  28)  ---------------------------------------


    POTLOK:  cpu time    0.0550: real time    0.0577
    SETDIJ:  cpu time    0.0054: real time    0.0054
     EDDAV:  cpu time    0.1442: real time    0.1446
       DOS:  cpu time    0.0005: real time    0.0005
    CHARGE:  cpu time    0.0225: real time    0.0248
    MIXING:  cpu time    0.0027: real time    0.0027
    --------------------------------------------
      LOOP:  cpu time    0.2302: real time    0.2355

 eigenvalue-minimisations  :   168
 total energy-change (2. order) : 0.6155572E-03  (-0.3090792E-03)
 number of electron      51.9999991 magnetization 
 augmentation part        1.5742690 magnetization 

 Broyden mixing:
  rms(total) = 0.40920E-01    rms(broyden)= 0.40920E-01
  rms(prec ) = 0.41282E-01
  weight for this iteration     100.00

 eigenvalues of (default mixing * dielectric matrix)
  average eigenvalue GAMMA=   1.2070
  4.5917  2.6994  1.6507  1.6507  1.7255  1.4313  1.4313  1.0999  1.0999  1.1978
  1.1978  1.0156  1.0156  0.1711  0.7906  0.7906  0.7597  0.7597  0.6455  0.6455
  0.2387  0.5759  0.5759

 Free energy of the ion-electron system (eV)
  ---------------------------------------------------
  alpha Z        PSCENC =       160.27286088
  Ewald energy   TEWEN  =     -2671.48696594
  -Hartree energ DENC   =     -2039.34605348
  -exchange      EXHF   =         0.00000000
  -V(xc)+E(xc)   XCENC  =       182.69726077
  PAW double counting   =      7347.52323826    -7303.81790302
  entropy T*S    EENTRO =        -0.02532275
  eigenvalues    EBANDS =      -542.79371277
  atomic energy  EATOM  =      4831.84262874
  Solvation  Ediel_sol  =         0.00000000
  ---------------------------------------------------
  free energy    TOTEN  =       -35.13396930 eV

  energy without entropy =      -35.10864655  energy(sigma->0) =      -35.12130792


--------------------------------------------------------------------------------------------------------




--------------------------------------- Iteration      1(  29)  ---------------------------------------


    POTLOK:  cpu time    0.0550: real time    0.0577
    SETDIJ:  cpu time    0.0054: real time    0.0054
     EDDAV:  cpu time    0.1277: real time    0.1277
       DOS:  cpu time    0.0004: real time    0.0004
    CHARGE:  cpu time    0.0224: real time    0.0224
    MIXING:  cpu time    0.0028: real time    0.0028
    --------------------------------------------
      LOOP:  cpu time    0.2137: real time    0.2164

 eigenvalue-minimisations  :   144
 total energy-change (2. order) : 0.7825980E-04  (-0.2375652E-04)
 number of electron      51.9999991 magnetization 
 augmentation part        1.5733423 magnetization 

 Broyden mixing:
  rms(total) = 0.97476E-02    rms(broyden)= 0.97475E-02
  rms(prec ) = 0.10107E-01
  weight for this iteration     100.00

 eigenvalues of (default mixing * dielectric matrix)
  average eigenvalue GAMMA=   1.1652
  4.7021  2.6714  1.6507  1.6507  1.6058  1.3732  1.3732  1.1080  1.1080  1.1818
  1.1818  0.9225  0.9225  0.9909  0.1711  0.7845  0.7845  0.6459  0.6459  0.7383
  0.2387  0.5541  0.5541  0.4043

 Free energy of the ion-electron system (eV)
  ---------------------------------------------------
  alpha Z        PSCENC =       160.27286088
  Ewald energy   TEWEN  =     -2671.48696594
  -Hartree energ DENC   =     -2039.31869002
  -exchange      EXHF   =         0.00000000
  -V(xc)+E(xc)   XCENC  =       182.69549058
  PAW double counting   =      7337.95469417    -7294.24555330
  entropy T*S    EENTRO =        -0.02548076
  eigenvalues    EBANDS =      -542.82287539
  atomic energy  EATOM  =      4831.84262874
  Solvation  Ediel_sol  =         0.00000000
  ---------------------------------------------------
  free energy    TOTEN  =       -35.13389104 eV

  energy without entropy =      -35.10841028  energy(sigma->0) =      -35.12115066


--------------------------------------------------------------------------------------------------------




--------------------------------------- Iteration      1(  30)  ---------------------------------------


    POTLOK:  cpu time    0.0550: real time    0.0582
    SETDIJ:  cpu time    0.0054: real time    0.0054
     EDDAV:  cpu time    0.1397: real time    0.1397
       DOS:  cpu time    0.0003: real time    0.0003
    CHARGE:  cpu time    0.0225: real time    0.0225
    MIXING:  cpu time    0.0029: real time    0.0029
    --------------------------------------------
      LOOP:  cpu time    0.2259: real time    0.2291

 eigenvalue-minimisations  :   160
 total energy-change (2. order) : 0.5864798E-05  (-0.2723964E-05)
 number of electron      51.9999991 magnetization 
 augmentation part        1.5728275 magnetization 

 Broyden mixing:
  rms(total) = 0.20435E-02    rms(broyden)= 0.20435E-02
  rms(prec ) = 0.25135E-02
  weight for this iteration     100.00

 eigenvalues of (default mixing * dielectric matrix)
  average eigenvalue GAMMA=   1.1710
  4.7113  2.6693  1.6508  1.6508  1.4240  1.4240  1.1079  1.1079  1.3826  1.3826
  0.9218  0.9218  1.0722  1.0722  0.1711  0.8001  0.8001  0.2387  0.6459  0.6459
  0.7679  0.7679  0.7724  0.5824  0.5824

 Free energy of the ion-electron system (eV)
  ---------------------------------------------------
  alpha Z        PSCENC =       160.27286088
  Ewald energy   TEWEN  =     -2671.48696594
  -Hartree energ DENC   =     -2039.30262450
  -exchange      EXHF   =         0.00000000
  -V(xc)+E(xc)   XCENC  =       182.69521817
  PAW double counting   =      7335.49820712    -7291.78949080
  entropy T*S    EENTRO =        -0.02559567
  eigenvalues    EBANDS =      -542.83812317
  atomic energy  EATOM  =      4831.84262874
  Solvation  Ediel_sol  =         0.00000000
  ---------------------------------------------------
  free energy    TOTEN  =       -35.13388517 eV

  energy without entropy =      -35.10828950  energy(sigma->0) =      -35.12108733


--------------------------------------------------------------------------------------------------------




--------------------------------------- Iteration      1(  31)  ---------------------------------------


    POTLOK:  cpu time    0.0551: real time    0.0580
    SETDIJ:  cpu time    0.0054: real time    0.0054
     EDDAV:  cpu time    0.1137: real time    0.1137
       DOS:  cpu time    0.0003: real time    0.0003
    CHARGE:  cpu time    0.0227: real time    0.0227
    MIXING:  cpu time    0.0030: real time    0.0030
    --------------------------------------------
      LOOP:  cpu time    0.2003: real time    0.2032

 eigenvalue-minimisations  :   120
 total energy-change (2. order) : 0.1583438E-05  (-0.4384324E-06)
 number of electron      51.9999991 magnetization 
 augmentation part        1.5727817 magnetization 

 Broyden mixing:
  rms(total) = 0.35014E-02    rms(broyden)= 0.35014E-02
  rms(prec ) = 0.36377E-02
  weight for this iteration     100.00

 eigenvalues of (default mixing * dielectric matrix)
  average eigenvalue GAMMA=   1.2686
  4.5328  1.6508  1.6508  2.7046  2.7046  1.8088  1.8088  1.2647  1.2647  1.0938
  1.0938  1.1431  1.1431  1.1888  1.1888  0.1711  0.9446  0.7826  0.7826  0.2387
  0.6455  0.6455  0.7012  0.6280  0.6280  0.5729

 Free energy of the ion-electron system (eV)
  ---------------------------------------------------
  alpha Z        PSCENC =       160.27286088
  Ewald energy   TEWEN  =     -2671.48696594
  -Hartree energ DENC   =     -2039.28508569
  -exchange      EXHF   =         0.00000000
  -V(xc)+E(xc)   XCENC  =       182.69504204
  PAW double counting   =      7334.70449502    -7290.99652222
  entropy T*S    EENTRO =        -0.02562984
  eigenvalues    EBANDS =      -542.85470658
  atomic energy  EATOM  =      4831.84262874
  Solvation  Ediel_sol  =         0.00000000
  ---------------------------------------------------
  free energy    TOTEN  =       -35.13388359 eV

  energy without entropy =      -35.10825375  energy(sigma->0) =      -35.12106867


--------------------------------------------------------------------------------------------------------




--------------------------------------- Iteration      1(  32)  ---------------------------------------


    POTLOK:  cpu time    0.0550: real time    0.0579
    SETDIJ:  cpu time    0.0054: real time    0.0054
     EDDAV:  cpu time    0.1342: real time    0.1342
       DOS:  cpu time    0.0003: real time    0.0003
    --------------------------------------------
      LOOP:  cpu time    0.1949: real time    0.1978

 eigenvalue-minimisations  :   152
 total energy-change (2. order) : 0.9436944E-06  (-0.6577418E-06)
 number of electron      51.9999991 magnetization 
 augmentation part        1.5727817 magnetization 

 Free energy of the ion-electron system (eV)
  ---------------------------------------------------
  alpha Z        PSCENC =       160.27286088
  Ewald energy   TEWEN  =     -2671.48696594
  -Hartree energ DENC   =     -2039.26848412
  -exchange      EXHF   =         0.00000000
  -V(xc)+E(xc)   XCENC  =       182.69451148
  PAW double counting   =      7335.39749939    -7291.69012096
  entropy T*S    EENTRO =        -0.02560516
  eigenvalues    EBANDS =      -542.87020695
  atomic energy  EATOM  =      4831.84262874
  Solvation  Ediel_sol  =         0.00000000
  ---------------------------------------------------
  free energy    TOTEN  =       -35.13388264 eV

  energy without entropy =      -35.10827748  energy(sigma->0) =      -35.12108006


--------------------------------------------------------------------------------------------------------




 average (electrostatic) potential at core
  the test charge radii are     1.0818  0.9698
  (the norm of the test charge is              1.0000)
       1 -75.5656       2 -74.6389       3 -87.5960       4 -88.3100       5 -84.7432
       6 -85.5510
 
 
 
 E-fermi :   7.0451     XC(G=0): -10.1200     alpha+bet :-12.2268

 Fermi energy:         7.0451325945

 k-point     1 :       0.2500    0.2500    0.0000
  band No.  band energies     occupation 
      1     -54.8499      2.00000
      2     -53.8214      2.00000
      3     -29.1516      2.00000
      4     -29.1413      2.00000
      5     -28.9933      2.00000
      6     -27.9842      2.00000
      7     -27.9406      2.00000
      8     -27.8597      2.00000
      9     -11.7023      2.00000
     10      -8.5437      2.00000
     11      -6.3418      2.00000
     12      -5.3416      2.00000
     13      -3.9005      2.00000
     14      -1.9484      2.00000
     15       0.0866      2.00000
     16       1.2389      2.00000
     17       2.0812      2.00000
     18       2.3423      2.00000
     19       3.1354      2.00000
     20       3.4041      2.00000
     21       3.7312      2.00000
     22       3.8974      2.00000
     23       5.2878      2.00000
     24       6.1076      2.00000
     25       6.4688      2.00000
     26       7.0607      0.65983
     27       7.3400      0.00000
     28       8.0340      0.00000
     29       8.4683      0.00000
     30       8.5424      0.00000
     31       9.0179      0.00000
     32       9.9431      0.00000

 k-point     2 :      -0.2500    0.2500    0.0000
  band No.  band energies     occupation 
      1     -54.8684      2.00000
      2     -53.8380      2.00000
      3     -29.1923      2.00000
      4     -29.0258      2.00000
      5     -28.8789      2.00000
      6     -27.9711      2.00000
      7     -27.8825      2.00000
      8     -27.7601      2.00000
      9     -13.4315      2.00000
     10      -7.1009      2.00000
     11      -6.1525      2.00000
     12      -6.0629      2.00000
     13      -2.7249      2.00000
     14      -1.5180      2.00000
     15       0.5028      2.00000
     16       1.9426      2.00000
     17       2.3113      2.00000
     18       2.6771      2.00000
     19       3.3869      2.00000
     20       3.6546      2.00000
     21       3.7023      2.00000
     22       4.8215      2.00000
     23       5.0827      2.00000
     24       5.5468      2.00000
     25       6.1772      2.00000
     26       6.4307      2.00000
     27       7.0296      1.34017
     28       7.8110      0.00000
     29       7.8185      0.00000
     30       8.2680      0.00000
     31       8.6270      0.00000
     32       8.7388      0.00000


--------------------------------------------------------------------------------------------------------


 soft charge-density along one line, spin component           1
         0         1         2         3         4         5         6         7         8         9
 total charge-density along one line
 
 pseudopotential strength for first ion, spin component:           1
 -5.153  11.366   0.000  -0.031  -0.000  -0.000   0.037   0.000
 11.366   3.275  -0.000   0.029   0.000   0.000  -0.005  -0.000
  0.000  -0.000 -18.074   0.000  -0.000   8.879  -0.000   0.000
 -0.031   0.029   0.000 -18.085  -0.000  -0.000   8.893   0.000
 -0.000   0.000  -0.000  -0.000 -18.074   0.000   0.000   8.879
 -0.000   0.000   8.879  -0.000   0.000   5.781   0.000  -0.000
  0.037  -0.005  -0.000   8.893   0.000   0.000   5.775  -0.000
  0.000  -0.000   0.000   0.000   8.879  -0.000  -0.000   5.781
 -0.000   0.000  -0.000   0.000   0.007   0.000  -0.000  -0.004
  0.000  -0.000  -0.030   0.000   0.000   0.019  -0.000  -0.000
 -0.008   0.006  -0.000  -0.039   0.000   0.000   0.024  -0.000
 -0.000   0.000   0.000  -0.000  -0.030  -0.000   0.000   0.019
 -0.000   0.000   0.007   0.000  -0.000  -0.004  -0.000   0.000
 -0.000   0.000  -0.000   0.000   0.008   0.000  -0.000  -0.004
  0.000  -0.000  -0.031   0.000   0.000   0.019  -0.000  -0.000
 -0.009   0.006  -0.000  -0.040   0.000   0.000   0.025  -0.000
 -0.000   0.000   0.000  -0.000  -0.031  -0.000   0.000   0.019
 -0.000   0.000   0.008   0.000  -0.000  -0.004  -0.000   0.000
 total augmentation occupancy for first ion, spin component:           1
  1.997  -0.031   0.000   0.001   0.000   0.000   0.002   0.000   0.000   0.000  -0.003  -0.000  -0.000   0.000   0.000   0.004
 -0.031   1.164   0.000   0.023  -0.000   0.000  -0.035  -0.000  -0.000   0.000  -0.229  -0.000  -0.000  -0.000   0.000   0.265
  0.000   0.000   2.000   0.000  -0.000  -0.035   0.000   0.000   0.000   0.007   0.000   0.000   0.009   0.000   0.000   0.000
  0.001   0.023   0.000   2.000   0.000   0.000  -0.036   0.000  -0.000   0.000   0.007   0.000   0.000   0.000   0.000   0.003
  0.000  -0.000   0.000   0.000   2.000  -0.000   0.000  -0.035   0.009   0.000  -0.000   0.007  -0.000   0.000  -0.000   0.000
  0.000   0.000  -0.035   0.000   0.000   0.091   0.000   0.000  -0.000  -0.010   0.000  -0.000   0.168  -0.000   0.012  -0.000
  0.002  -0.035   0.000  -0.036   0.000   0.000   0.110  -0.000  -0.000   0.000  -0.121   0.000  -0.000   0.000   0.000   0.116
  0.000  -0.000  -0.000  -0.000  -0.035   0.000  -0.000   0.091   0.168   0.000  -0.000  -0.010  -0.000  -0.190   0.000   0.000
  0.000  -0.000   0.000  -0.000   0.009  -0.000  -0.000   0.168   2.832  -0.000  -0.000  -0.483  -0.000  -3.222   0.000   0.000
  0.000   0.000   0.007   0.000  -0.000  -0.010   0.000   0.000  -0.000   5.284  -0.000  -0.000  -0.483   0.000  -6.043   0.000
 -0.003  -0.229   0.000   0.007  -0.000   0.000  -0.121  -0.000  -0.000  -0.000   4.325  -0.000   0.000   0.000   0.000  -4.414
 -0.000  -0.000   0.000   0.000   0.007  -0.000  -0.000  -0.010  -0.483  -0.000  -0.000   5.284  -0.000   0.251   0.000  -0.000
 -0.000  -0.000   0.009   0.000  -0.000   0.168  -0.000  -0.000  -0.000  -0.483   0.000  -0.000   2.832  -0.000   0.253  -0.000
  0.000  -0.000  -0.000   0.000   0.000   0.000   0.000  -0.190  -3.222   0.000   0.000   0.251  -0.000   4.423  -0.000   0.000
  0.000   0.000   0.000   0.000  -0.000   0.012   0.000   0.000   0.000  -6.043   0.000   0.000   0.253  -0.000   7.507  -0.000
  0.004   0.265   0.000   0.003   0.000  -0.000   0.116   0.000   0.000   0.000  -4.414  -0.000  -0.000   0.000  -0.000   5.382
  0.000  -0.000  -0.000  -0.000   0.000  -0.000  -0.000   0.012   0.253   0.000  -0.000  -6.043  -0.000  -0.092   0.000   0.000
  0.000   0.000   0.000   0.000   0.000  -0.190   0.000  -0.000   0.000   0.251  -0.000   0.000  -3.222  -0.000  -0.092   0.000


------------------------ aborting loop because EDIFF is reached ----------------------------------------


    CHARGE:  cpu time    0.0226: real time    0.0226
    FORLOC:  cpu time    0.0047: real time    0.0047
    FORNL :  cpu time    0.0356: real time    0.0356
    STRESS:  cpu time    0.0884: real time    0.0907
    FORCOR:  cpu time    0.0589: real time    0.0589
    FORHAR:  cpu time    0.0149: real time    0.0149
    MIXING:  cpu time    0.0031: real time    0.0031
    OFIELD:  cpu time    0.0000: real time    0.0000

 ---------------------------------------------------------------------------------------------

         DFTD3 V3.0 Rev 1        
 IVDW         = 12
 DF pbe       
 parameters
 VDW_S6       =    1.0000
 VDW_S8       =    0.7875
 VDW_A1       =    0.4289
 VDW_A2       =    4.4407
 k1-k3        =   16.0000    1.3333   -4.0000
 VDW_RADIUS   =   50.2022 A
 VDW_CNRADIUS =   21.1671 A
 Edisp (eV)   -2.38503

 E6    (eV) :    -1.4194
 E8    (eV) :    -0.9656
 % E8        : 40.49
    FORVDW:  cpu time    0.0379: real time    0.0379

  FORCE on cell =-STRESS in cart. coord.  units (eV):
  Direction    XX          YY          ZZ          XY          YZ          ZX
  --------------------------------------------------------------------------------------
  Alpha Z   160.27286   160.27286   160.27286
  Ewald     113.93374   113.93373 -2899.35770     0.00000     0.00000    -0.00000
  Hartree  1528.10438  1528.10438 -1016.99047    -0.00000     0.00000    -0.00000
  E(xc)    -220.08587  -220.08586  -220.80592    -0.00000     0.00000     0.00000
  Local   -2649.14773 -2649.14768  2904.93164     0.00000    -0.00000     0.00000
  n-local   227.31613   243.55114   237.95907    -0.00000     1.46567     0.00000
  augment    -1.98709    -1.98714    -2.99992     0.00000    -0.00000     0.00000
  Kinetic   837.51964   840.85348   842.24647    -0.00000     6.14399     0.00000
  Fock        0.00000     0.00000     0.00000     0.00000     0.00000     0.00000
  vdW        -2.45332    -2.45332    -2.19435    -0.00000    -0.00000     0.00000
  -------------------------------------------------------------------------------------
  Total       3.25716     3.25716     3.06168    -0.00000    -0.00000     0.00000
  in kB      44.20051    44.20051    41.54781    -0.00000    -0.00000     0.00000
  external pressure =       43.32 kB  Pullay stress =        0.00 kB


 VOLUME and BASIS-vectors are now :
 -----------------------------------------------------------------------------
  energy-cutoff  :      500.00
  volume of cell :      118.07
      direct lattice vectors                 reciprocal lattice vectors
     1.596118927 -2.764559076  0.000000000     0.313259865 -0.180860668  0.000000000
     1.596118927  2.764559076  0.000000000     0.313259865  0.180860668  0.000000000
     0.000000000  0.000000000 13.378293991     0.000000000  0.000000000  0.074747946

  length of vectors
     3.192237854  3.192237854 13.378293991     0.361721335  0.361721335  0.074747946


 FORCES acting on ions
    electron-ion (+dipol)            ewald-force                    non-local-force                 convergence-correction
 -----------------------------------------------------------------------------------------------
   0.124E-07 0.338E-05 0.347E+03   -.444E-13 0.503E-06 -.353E+03   0.173E-17 -.520E-17 0.474E+01   0.260E-12 0.346E-08 -.286E-01
   0.164E-07 -.345E-05 0.279E+03   -.112E-13 -.252E-06 -.271E+03   0.347E-17 0.347E-17 -.664E+01   -.146E-12 -.756E-08 0.169E-01
   -.279E-06 0.964E-06 -.535E+03   0.683E-14 0.316E-06 0.546E+03   -.555E-16 0.000E+00 -.383E+01   0.584E-13 -.628E-08 -.184E-01
   0.735E-07 -.767E-06 -.375E+03   0.881E-14 -.566E-06 0.368E+03   -.111E-15 0.000E+00 0.175E+01   -.693E-13 -.648E-10 -.279E-01
   -.876E-07 0.882E-06 -.269E+03   -.468E-14 0.253E-06 0.273E+03   0.139E-16 -.278E-16 -.606E+01   0.890E-14 -.184E-08 0.158E-01
   0.786E-07 -.891E-06 0.558E+03   0.148E-13 -.253E-06 -.563E+03   0.278E-16 0.278E-16 0.535E+01   -.406E-13 0.869E-08 0.771E-02
 -----------------------------------------------------------------------------------------------
   -.185E-06 0.120E-06 0.473E+01   -.299E-13 0.634E-14 -.114E-12   -.120E-15 -.173E-17 -.469E+01   0.715E-13 -.359E-08 -.345E-01
 
 
 POSITION                                       TOTAL-FORCE (eV/Angst)
 -----------------------------------------------------------------------------------
      1.59612     -0.92152      3.34457         0.000000      0.000000     -1.486476
      1.59612      0.92152     10.03372        -0.000000     -0.000000      1.197758
      1.59612     -0.92152      5.85886         0.000000      0.000000      6.675150
      1.59612      0.92152      4.90874        -0.000000      0.000000     -5.335813
      1.59612     -0.92152     11.59788         0.000000      0.000000     -1.309657
      1.59612      0.92152      1.78041         0.000000     -0.000000      0.259037
 -----------------------------------------------------------------------------------
    total drift:                               -0.000000      0.000000     -0.000514


--------------------------------------------------------------------------------------------------------



  FREE ENERGIE OF THE ION-ELECTRON SYSTEM (eV)
  ---------------------------------------------------
  free  energy   TOTEN  =       -37.51891269 eV

  energy  without entropy=      -37.49330753  energy(sigma->0) =      -37.50611011
 


--------------------------------------------------------------------------------------------------------


    POTLOK:  cpu time    0.0604: real time    0.0604


--------------------------------------------------------------------------------------------------------


 stress matrix after NEB project (eV)
      3.25716     -0.00000      0.00000
     -0.00000      3.25716     -0.00000
      0.00000     -0.00000      3.06168
  FORCES: max atom, RMS     6.675150    3.616054
  FORCE total and by dimension    8.857486    6.675150
  Stress total and by dimension    5.531003    3.257156
 writing wavefunctions
     LOOP+:  cpu time    7.8762: real time    8.0039
    4ORBIT:  cpu time    0.0000: real time    0.0000

 total amount of memory used by VASP MPI-rank0    37007. kBytes
=======================================================================

   base      :      30000. kBytes
   nonl-proj :        502. kBytes
   fftplans  :       2328. kBytes
   grid      :       3750. kBytes
   one-center:         31. kBytes
   wavefun   :        396. kBytes
 
  
  
 General timing and accounting informations for this job:
 ========================================================
  
                  Total CPU time used (sec):        9.417
                            User time (sec):        8.612
                          System time (sec):        0.805
                         Elapsed time (sec):       10.008
  
                   Maximum memory used (kb):      131976.
                   Average memory used (kb):          N/A
  
                          Minor page faults:        24692
                          Major page faults:            0
                 Voluntary context switches:          966
