 vasp.6.2.0 18Jan21 (build Jul 31 2023 14:19:35) complex                        
  
 executed on             LinuxIFC date 2025.09.17  12:26:20
 running on    8 total cores
 distrk:  each k-point on    8 cores,    1 groups
 distr:  one band on NCORE=   4 cores,    2 groups


--------------------------------------------------------------------------------------------------------


 INCAR:
   SYSTEM = MoS2_SinglePoint_vdW_Coulomb
   PREC = Accurate
   ENCUT = 500
   GGA = PE
   ALGO = Normal
   NELM = 100
   NELMIN = 5
   EDIFF = 1E-6
   ISMEAR = 0
   SIGMA = 0.05
   IBRION = -1
   NSW = 0
   IVDW = 12
   LREAL = .FALSE.
   LCHARG = .TRUE.
   LWAVE = .TRUE.
   NWRITE = 1
   NCORE = 4

 POTCAR:    PAW_PBE Mo_sv 02Feb2006               
 POTCAR:    PAW_PBE S 06Sep2000                   
 POTCAR:    PAW_PBE Mo_sv 02Feb2006               
  local pseudopotential read in
  partial core-charges read in
  partial kinetic energy density read in
  atomic valenz-charges read in
  non local Contribution for L=           0  read in
    real space projection operators read in
  non local Contribution for L=           0  read in
    real space projection operators read in
  non local Contribution for L=           1  read in
    real space projection operators read in
  non local Contribution for L=           1  read in
    real space projection operators read in
  non local Contribution for L=           2  read in
    real space projection operators read in
  non local Contribution for L=           2  read in
    real space projection operators read in
    PAW grid and wavefunctions read in
 
   number of l-projection  operators is LMAX  =           6
   number of lm-projection operators is LMMAX =          18
 
 POTCAR:    PAW_PBE S 06Sep2000                   
  local pseudopotential read in
  partial core-charges read in
  partial kinetic energy density read in
  atomic valenz-charges read in
  non local Contribution for L=           0  read in
    real space projection operators read in
  non local Contribution for L=           0  read in
    real space projection operators read in
  non local Contribution for L=           1  read in
    real space projection operators read in
  non local Contribution for L=           1  read in
    real space projection operators read in
    PAW grid and wavefunctions read in
 
   number of l-projection  operators is LMAX  =           4
   number of lm-projection operators is LMMAX =           8
 
  PAW_PBE Mo_sv 02Feb2006               :
 energy of atom  1       EATOM=-1862.2866
 kinetic energy error for atom=    0.0074 (will be added to EATOM!!)
  PAW_PBE S 06Sep2000                   :
 energy of atom  2       EATOM= -276.8230
 kinetic energy error for atom=    0.0020 (will be added to EATOM!!)
 
 
 POSCAR: Mo S
  positions in direct lattice
  No initial velocities read in
 exchange correlation table for  LEXCH =        8
   RHO(1)=    0.500       N(1)  =     2000
   RHO(2)=  100.500       N(2)  =     4000

 VTST: version 4.0, (05/15/20)

 CHAIN: initializing optimizer
 
 OPT: Using VASP Dynamics algorithm
 CHAIN: Read ICHAIN            0
 
 POSCAR: Mo S
  positions in direct lattice
  No initial velocities read in
 


--------------------------------------------------------------------------------------------------------


 ion  position               nearest neighbor table
   1  0.667  0.333  0.250-   6 2.42   6 2.42   6 2.42   4 2.42   4 2.73   4 2.75
   2  0.333  0.667  0.750-   3 2.42   5 2.42   3 2.42   5 2.42   3 2.42   5 2.42
   3  0.667  0.333  0.633-   2 2.42   2 2.42   2 2.42
   4  0.949  0.890  0.389-   1 2.42   1 2.73   1 2.75
   5  0.667  0.333  0.867-   2 2.42   2 2.42   2 2.42
   6  0.333  0.667  0.133-   1 2.42   1 2.42   1 2.42
 
  LATTYP: Found a hexagonal cell.
 ALAT       =     3.1922378540
 C/A-ratio  =     4.1908825730
  
  Lattice vectors:
  
 A1 = (   1.5961189270,  -2.7645590765,   0.0000000000)
 A2 = (   1.5961189270,   2.7645590765,   0.0000000000)
 A3 = (   0.0000000000,   0.0000000000,  13.3782939911)


Analysis of symmetry for initial positions (statically):
=====================================================================
 Subroutine PRICEL returns:
 Original cell was already a primitive cell.
 

 Routine SETGRP: Setting up the symmetry group for a 
 hexagonal supercell.


 Subroutine GETGRP returns: Found  1 space group operations
 (whereof  1 operations were pure point group operations)
 out of a pool of 24 trial point group operations.


The static configuration has the point symmetry C_1 .


Analysis of symmetry for dynamics (positions and initial velocities):
=====================================================================
 Subroutine PRICEL returns:
 Original cell was already a primitive cell.
 

 Routine SETGRP: Setting up the symmetry group for a 
 hexagonal supercell.


 Subroutine GETGRP returns: Found  1 space group operations
 (whereof  1 operations were pure point group operations)
 out of a pool of 24 trial point group operations.


The dynamic configuration has the point symmetry C_1 .


 Subroutine INISYM returns: Found  1 space group operations
 (whereof  1 operations are pure point group operations),
 and found     1 'primitive' translations


----------------------------------------------------------------------------------------

                                     Primitive cell                                     

  volume of cell :     118.0652

  direct lattice vectors                    reciprocal lattice vectors
     1.596118927 -2.764559076  0.000000000     0.313259865 -0.180860668  0.000000000
     1.596118927  2.764559076  0.000000000     0.313259865  0.180860668  0.000000000
     0.000000000  0.000000000 13.378293991     0.000000000  0.000000000  0.074747946

  length of vectors
     3.192237854  3.192237854 13.378293991     0.361721335  0.361721335  0.074747946

  position of ions in fractional coordinates (direct lattice)
     0.666666667  0.333333333  0.250000000
     0.333333333  0.666666667  0.750000000
     0.666666667  0.333333333  0.633082000
     0.949458112  0.890492176  0.389254057
     0.666666667  0.333333333  0.866918000
     0.333333333  0.666666667  0.133082000

  ion indices of the primitive-cell ions
   primitive index   ion index
                 1           1
                 2           2
                 3           3
                 4           4
                 5           5
                 6           6

----------------------------------------------------------------------------------------

 
 
 KPOINTS: K-Spacing Value to Generate K-Mesh: 0.15

Automatic generation of k-mesh.
 Grid dimensions read from file:
 generate k-points for:    2    2    1

 Generating k-lattice:

  Cartesian coordinates                     Fractional coordinates (reciprocal lattice)
     0.156629933 -0.090430334  0.000000000     0.500000000  0.000000000  0.000000000
     0.156629933  0.090430334  0.000000000     0.000000000  0.500000000  0.000000000
     0.000000000  0.000000000  0.074747946     0.000000000  0.000000000  1.000000000

  Length of vectors
     0.180860668  0.180860668  0.074747946

  Shift w.r.t. Gamma in fractional coordinates (k-lattice)
     0.500000000  0.500000000  0.000000000

 
 Subroutine IBZKPT returns following result:
 ===========================================
 
 Found      6 irreducible k-points:
 
 Following reciprocal coordinates:
            Coordinates               Weight
  0.250000  0.250000  0.000000      2.000000
 -0.250000  0.500000  0.000000      2.000000
  0.500000  0.250000  0.000000      2.000000
 -0.250000  0.250000  0.000000      2.000000
 -0.250000  0.000000  0.000000      2.000000
  0.000000 -0.250000  0.000000      2.000000
 
 Following cartesian coordinates:
            Coordinates               Weight
  0.156630  0.000000  0.000000      2.000000
  0.078315  0.135646  0.000000      2.000000
  0.234945 -0.045215  0.000000      2.000000
  0.000000  0.090430  0.000000      2.000000
 -0.078315  0.045215  0.000000      2.000000
 -0.078315 -0.045215  0.000000      2.000000
 


--------------------------------------------------------------------------------------------------------




 Dimension of arrays:
   k-points           NKPTS =      6   k-points in BZ     NKDIM =      6   number of bands    NBANDS=     32
   number of dos      NEDOS =    301   number of ions     NIONS =      6
   non local maximal  LDIM  =      6   non local SUM 2l+1 LMDIM =     18
   total plane-waves  NPLWV =  56448
   max r-space proj   IRMAX =      1   max aug-charges    IRDMAX=  21106
   dimension x,y,z NGX =    24 NGY =   24 NGZ =   98
   dimension x,y,z NGXF=    48 NGYF=   48 NGZF=  196
   support grid    NGXF=    48 NGYF=   48 NGZF=  196
   ions per type =               2   4
   NGX,Y,Z   is equivalent  to a cutoff of  12.50, 12.50, 12.18 a.u.
   NGXF,Y,Z  is equivalent  to a cutoff of  25.00, 25.00, 24.36 a.u.

 SYSTEM =  MoS2_SinglePoint_vdW_Coulomb           
 POSCAR =  Mo S                                    

 Startparameter for this run:
   NWRITE =      1    write-flag & timer
   PREC   = accura    normal or accurate (medium, high low for compatibility)
   ISTART =      0    job   : 0-new  1-cont  2-samecut
   ICHARG =      2    charge: 1-file 2-atom 10-const
   ISPIN  =      1    spin polarized calculation?
   LNONCOLLINEAR =      F non collinear calculations
   LSORBIT =      F    spin-orbit coupling
   INIWAV =      1    electr: 0-lowe 1-rand  2-diag
   LASPH  =      F    aspherical Exc in radial PAW
   METAGGA=      F    non-selfconsistent MetaGGA calc.

 Electronic Relaxation 1
   ENCUT  =  500.0 eV  36.75 Ry    6.06 a.u.   5.82  5.82 24.39*2*pi/ulx,y,z
   ENINI  =  500.0     initial cutoff
   ENAUG  =  446.0 eV  augmentation charge cutoff
   NELM   =    100;   NELMIN=  5; NELMDL= -5     # of ELM steps 
   EDIFF  = 0.1E-05   stopping-criterion for ELM
   LREAL  =      F    real-space projection
   NLSPLINE    = F    spline interpolate recip. space projectors
   LCOMPAT=      F    compatible to vasp.4.4
   GGA_COMPAT  = T    GGA compatible to vasp.4.4-vasp.4.6
   LMAXPAW     = -100 max onsite density
   LMAXMIX     =    2 max onsite mixed and CHGCAR
   VOSKOWN=      0    Vosko Wilk Nusair interpolation
   ROPT   =    0.00000   0.00000
 Ionic relaxation
   EDIFFG = 0.1E-04   stopping-criterion for IOM
   NSW    =      0    number of steps for IOM
   NBLOCK =      1;   KBLOCK =      1    inner block; outer block 
   IBRION =     -1    ionic relax: 0-MD 1-quasi-New 2-CG
   NFREE  =      0    steps in history (QN), initial steepest desc. (CG)
   ISIF   =      2    stress and relaxation
   IWAVPR =     10    prediction:  0-non 1-charg 2-wave 3-comb
   ISYM   =      2    0-nonsym 1-usesym 2-fastsym
   LCORR  =      T    Harris-Foulkes like correction to forces

   POTIM  = 0.5000    time-step for ionic-motion
   TEIN   =    0.0    initial temperature
   TEBEG  =    0.0;   TEEND  =   0.0 temperature during run
   SMASS  =  -3.00    Nose mass-parameter (am)
   estimated Nose-frequenzy (Omega)   =  0.10E-29 period in steps = 0.13E+47 mass=  -0.233E-27a.u.
   SCALEE = 1.0000    scale energy and forces
   NPACO  =    256;   APACO  = 16.0  distance and # of slots for P.C.
   PSTRESS=    0.0 pullay stress

  Mass of Ions in am
   POMASS =  95.94 32.07
  Ionic Valenz
   ZVAL   =  14.00  6.00
  Atomic Wigner-Seitz radii
   RWIGS  =  -1.00 -1.00
  virtual crystal weights 
   VCA    =   1.00  1.00
   NELECT =      52.0000    total number of electrons
   NUPDOWN=      -1.0000    fix difference up-down

 DOS related values:
   EMIN   =  10.00;   EMAX   =-10.00  energy-range for DOS
   EFERMI =   0.00
   ISMEAR =     0;   SIGMA  =   0.05  broadening in eV -4-tet -1-fermi 0-gaus

 Electronic relaxation 2 (details)
   IALGO  =     38    algorithm
   LDIAG  =      T    sub-space diagonalisation (order eigenvalues)
   LSUBROT=      F    optimize rotation matrix (better conditioning)
   TURBO    =      0    0=normal 1=particle mesh
   IRESTART =      0    0=no restart 2=restart with 2 vectors
   NREBOOT  =      0    no. of reboots
   NMIN     =      0    reboot dimension
   EREF     =   0.00    reference energy to select bands
   IMIX   =      4    mixing-type and parameters
     AMIX     =   0.40;   BMIX     =  1.00
     AMIX_MAG =   1.60;   BMIX_MAG =  1.00
     AMIN     =   0.10
     WC   =   100.;   INIMIX=   1;  MIXPRE=   1;  MAXMIX= -45

 Intra band minimization:
   WEIMIN = 0.0000     energy-eigenvalue tresh-hold
   EBREAK =  0.78E-08  absolut break condition
   DEPER  =   0.30     relativ break condition  

   TIME   =   0.40     timestep for ELM

  volume/ion in A,a.u.               =      19.68       132.79
  Fermi-wavevector in a.u.,A,eV,Ry     =   1.245571  2.353789 21.108736  1.551448
  Thomas-Fermi vector in A             =   2.379788
 
 Write flags
   LWAVE        =      T    write WAVECAR
   LDOWNSAMPLE  =      F    k-point downsampling of WAVECAR
   LCHARG       =      T    write CHGCAR
   LVTOT        =      F    write LOCPOT, total local potential
   LVHAR        =      F    write LOCPOT, Hartree potential only
   LELF         =      F    write electronic localiz. function (ELF)
   LORBIT       =      0    0 simple, 1 ext, 2 COOP (PROOUT), +10 PAW based schemes


 Dipole corrections
   LMONO  =      F    monopole corrections only (constant potential shift)
   LDIPOL =      F    correct potential (dipole corrections)
   IDIPOL =      0    1-x, 2-y, 3-z, 4-all directions 
   EPSILON=  1.0000000 bulk dielectric constant

 Exchange correlation treatment:
   GGA     =    PE    GGA type
   LEXCH   =     8    internal setting for exchange type
   VOSKOWN=      0    Vosko Wilk Nusair interpolation
   LHFCALC =     F    Hartree Fock is set to
   LHFONE  =     F    Hartree Fock one center treatment
   AEXX    =    0.0000 exact exchange contribution

 Linear response parameters
   LEPSILON=     F    determine dielectric tensor
   LRPA    =     F    only Hartree local field effects (RPA)
   LNABLA  =     F    use nabla operator in PAW spheres
   LVEL    =     F    velocity operator in full k-point grid
   LINTERFAST=   F  fast interpolation
   KINTER  =     0    interpolate to denser k-point grid
   CSHIFT  =0.1000    complex shift for real part using Kramers Kronig
   OMEGAMAX=  -1.0    maximum frequency
   DEG_THRESHOLD= 0.2000000E-02 threshold for treating states as degnerate
   RTIME   =   -0.100 relaxation time in fs
  (WPLASMAI=    0.000 imaginary part of plasma frequency in eV, 0.658/RTIME)
   DFIELD  = 0.0000000 0.0000000 0.0000000 field for delta impulse in time
 
 Orbital magnetization related:
   ORBITALMAG=     F  switch on orbital magnetization
   LCHIMAG   =     F  perturbation theory with respect to B field
   DQ        =  0.001000  dq finite difference perturbation B field
   LLRAUG    =     F  two centre corrections for induced B field



--------------------------------------------------------------------------------------------------------


 Static calculation
 charge density and potential will be updated during run
 non-spin polarized calculation
 Variant of blocked Davidson
 Davidson routine will perform the subspace rotation
 perform sub-space diagonalisation
    after iterative eigenvector-optimisation
 modified Broyden-mixing scheme, WC =      100.0
 initial mixing is a Kerker type mixing with AMIX =  0.4000 and BMIX =      1.0000
 Hartree-type preconditioning will be used
 using additional bands            6
 reciprocal scheme for non local part
 use partial core corrections
 calculate Harris-corrections to forces 
   (improved forces if not selfconsistent)
 use gradient corrections 
 use of overlap-Matrix (Vanderbilt PP)
 Gauss-broadening in eV      SIGMA  =   0.05


--------------------------------------------------------------------------------------------------------


  energy-cutoff  :      500.00
  volume of cell :      118.07
      direct lattice vectors                 reciprocal lattice vectors
     1.596118927 -2.764559076  0.000000000     0.313259865 -0.180860668  0.000000000
     1.596118927  2.764559076  0.000000000     0.313259865  0.180860668  0.000000000
     0.000000000  0.000000000 13.378293991     0.000000000  0.000000000  0.074747946

  length of vectors
     3.192237854  3.192237854 13.378293991     0.361721335  0.361721335  0.074747946


 
 k-points in units of 2pi/SCALE and weight: K-Spacing Value to Generate K-Mesh: 0.15
   0.15662993  0.00000000  0.00000000       0.167
   0.07831497  0.13564550  0.00000000       0.167
   0.23494490 -0.04521517  0.00000000       0.167
   0.00000000  0.09043033  0.00000000       0.167
  -0.07831497  0.04521517  0.00000000       0.167
  -0.07831497 -0.04521517  0.00000000       0.167
 
 k-points in reciprocal lattice and weights: K-Spacing Value to Generate K-Mesh: 0.15
   0.25000000  0.25000000  0.00000000       0.167
  -0.25000000  0.50000000  0.00000000       0.167
   0.50000000  0.25000000  0.00000000       0.167
  -0.25000000  0.25000000  0.00000000       0.167
  -0.25000000  0.00000000  0.00000000       0.167
   0.00000000 -0.25000000  0.00000000       0.167
 
 position of ions in fractional coordinates (direct lattice) 
   0.66666667  0.33333333  0.25000000
   0.33333333  0.66666667  0.75000000
   0.66666667  0.33333333  0.63308200
   0.94945811  0.89049218  0.38925406
   0.66666667  0.33333333  0.86691800
   0.33333333  0.66666667  0.13308200
 
 position of ions in cartesian coordinates  (Angst):
   1.59611893 -0.92151969  3.34457350
   1.59611893  0.92151969 10.03372049
   1.59611893 -0.92151969  8.46955712
   2.93677948 -0.16301481  5.20755522
   1.59611893 -0.92151969 11.59788387
   1.59611893  0.92151969  1.78041012
 


--------------------------------------------------------------------------------------------------------


 k-point   1 :   0.2500 0.2500 0.0000  plane waves:    3020
 k-point   2 :  -0.2500 0.5000 0.0000  plane waves:    3020
 k-point   3 :   0.5000 0.2500 0.0000  plane waves:    3020
 k-point   4 :  -0.2500 0.2500 0.0000  plane waves:    2992
 k-point   5 :  -0.2500 0.0000 0.0000  plane waves:    2992
 k-point   6 :   0.0000-0.2500 0.0000  plane waves:    2992

 maximum and minimum number of plane-waves per node :       767      745

 maximum number of plane-waves:      3020
 maximum index in each direction: 
   IXMAX=    6   IYMAX=    6   IZMAX=   24
   IXMIN=   -6   IYMIN=   -6   IZMIN=  -24


 parallel 3D FFT for wavefunctions:
    minimum data exchange during FFTs selected (reduces bandwidth)
 parallel 3D FFT for charge:
    minimum data exchange during FFTs selected (reduces bandwidth)


 total amount of memory used by VASP MPI-rank0    38677. kBytes
=======================================================================

   base      :      30000. kBytes
   nonl-proj :       1371. kBytes
   fftplans  :       2330. kBytes
   grid      :       3750. kBytes
   one-center:         31. kBytes
   wavefun   :       1195. kBytes
 
     INWAV:  cpu time    0.0000: real time    0.0001
 Broyden mixing: mesh for mixing (old mesh)
   NGX = 11   NGY = 11   NGZ = 49
  (NGX  = 48   NGY  = 48   NGZ  =196)
  gives a total of   5929 points

 initial charge density was supplied:
 charge density of overlapping atoms calculated
 number of electron      52.0000000 magnetization 
 keeping initial charge density in first step


--------------------------------------------------------------------------------------------------------


 Maximum index for augmentation-charges         2591 (set IRDMAX)


--------------------------------------------------------------------------------------------------------


 First call to EWALD:  gamma=   0.361
 Maximum number of real-space cells 4x 4x 1
 Maximum number of reciprocal cells 2x 2x 7

    FEWALD:  cpu time    0.0020: real time    0.0020


--------------------------------------- Iteration      1(   1)  ---------------------------------------


    POTLOK:  cpu time    0.0580: real time    0.0593
    SETDIJ:  cpu time    0.0056: real time    0.0056
     EDDAV:  cpu time    0.3912: real time    0.3914
       DOS:  cpu time    0.0007: real time    0.0007
    --------------------------------------------
      LOOP:  cpu time    0.4556: real time    0.4570

 eigenvalue-minimisations  :   432
 total energy-change (2. order) : 0.4203840E+03  (-0.2917753E+04)
 number of electron      52.0000000 magnetization 
 augmentation part       52.0000000 magnetization 

 Free energy of the ion-electron system (eV)
  ---------------------------------------------------
  alpha Z        PSCENC =       160.27286088
  Ewald energy   TEWEN  =     -2953.99340223
  -Hartree energ DENC   =     -1797.55337657
  -exchange      EXHF   =         0.00000000
  -V(xc)+E(xc)   XCENC  =       182.11461537
  PAW double counting   =      3865.57804258    -3815.84821480
  entropy T*S    EENTRO =        -0.00445915
  eigenvalues    EBANDS =       -52.02470181
  atomic energy  EATOM  =      4831.84262874
  Solvation  Ediel_sol  =         0.00000000
  ---------------------------------------------------
  free energy    TOTEN  =       420.38399302 eV

  energy without entropy =      420.38845217  energy(sigma->0) =      420.38622259


--------------------------------------------------------------------------------------------------------




--------------------------------------- Iteration      1(   2)  ---------------------------------------


     EDDAV:  cpu time    0.4076: real time    0.4103
       DOS:  cpu time    0.0003: real time    0.0003
    --------------------------------------------
      LOOP:  cpu time    0.4079: real time    0.4106

 eigenvalue-minimisations  :   464
 total energy-change (2. order) :-0.4432611E+03  (-0.4323976E+03)
 number of electron      52.0000000 magnetization 
 augmentation part       52.0000000 magnetization 

 Free energy of the ion-electron system (eV)
  ---------------------------------------------------
  alpha Z        PSCENC =       160.27286088
  Ewald energy   TEWEN  =     -2953.99340223
  -Hartree energ DENC   =     -1797.55337657
  -exchange      EXHF   =         0.00000000
  -V(xc)+E(xc)   XCENC  =       182.11461537
  PAW double counting   =      3865.57804258    -3815.84821480
  entropy T*S    EENTRO =        -0.00000000
  eigenvalues    EBANDS =      -495.29026065
  atomic energy  EATOM  =      4831.84262874
  Solvation  Ediel_sol  =         0.00000000
  ---------------------------------------------------
  free energy    TOTEN  =       -22.87710667 eV

  energy without entropy =      -22.87710667  energy(sigma->0) =      -22.87710667


--------------------------------------------------------------------------------------------------------




--------------------------------------- Iteration      1(   3)  ---------------------------------------


     EDDAV:  cpu time    0.4251: real time    0.4282
       DOS:  cpu time    0.0003: real time    0.0003
    --------------------------------------------
      LOOP:  cpu time    0.4254: real time    0.4285

 eigenvalue-minimisations  :   480
 total energy-change (2. order) :-0.2242547E+02  (-0.2216181E+02)
 number of electron      52.0000000 magnetization 
 augmentation part       52.0000000 magnetization 

 Free energy of the ion-electron system (eV)
  ---------------------------------------------------
  alpha Z        PSCENC =       160.27286088
  Ewald energy   TEWEN  =     -2953.99340223
  -Hartree energ DENC   =     -1797.55337657
  -exchange      EXHF   =         0.00000000
  -V(xc)+E(xc)   XCENC  =       182.11461537
  PAW double counting   =      3865.57804258    -3815.84821480
  entropy T*S    EENTRO =        -0.00000000
  eigenvalues    EBANDS =      -517.71573031
  atomic energy  EATOM  =      4831.84262874
  Solvation  Ediel_sol  =         0.00000000
  ---------------------------------------------------
  free energy    TOTEN  =       -45.30257633 eV

  energy without entropy =      -45.30257633  energy(sigma->0) =      -45.30257633


--------------------------------------------------------------------------------------------------------




--------------------------------------- Iteration      1(   4)  ---------------------------------------


     EDDAV:  cpu time    0.4140: real time    0.4160
       DOS:  cpu time    0.0003: real time    0.0003
    --------------------------------------------
      LOOP:  cpu time    0.4142: real time    0.4163

 eigenvalue-minimisations  :   472
 total energy-change (2. order) :-0.5366647E+00  (-0.5348114E+00)
 number of electron      52.0000000 magnetization 
 augmentation part       52.0000000 magnetization 

 Free energy of the ion-electron system (eV)
  ---------------------------------------------------
  alpha Z        PSCENC =       160.27286088
  Ewald energy   TEWEN  =     -2953.99340223
  -Hartree energ DENC   =     -1797.55337657
  -exchange      EXHF   =         0.00000000
  -V(xc)+E(xc)   XCENC  =       182.11461537
  PAW double counting   =      3865.57804258    -3815.84821480
  entropy T*S    EENTRO =        -0.00000000
  eigenvalues    EBANDS =      -518.25239496
  atomic energy  EATOM  =      4831.84262874
  Solvation  Ediel_sol  =         0.00000000
  ---------------------------------------------------
  free energy    TOTEN  =       -45.83924098 eV

  energy without entropy =      -45.83924098  energy(sigma->0) =      -45.83924098


--------------------------------------------------------------------------------------------------------




--------------------------------------- Iteration      1(   5)  ---------------------------------------


     EDDAV:  cpu time    0.4430: real time    0.4469
       DOS:  cpu time    0.0003: real time    0.0003
    CHARGE:  cpu time    0.0378: real time    0.0378
    MIXING:  cpu time    0.0014: real time    0.0014
    --------------------------------------------
      LOOP:  cpu time    0.4825: real time    0.4864

 eigenvalue-minimisations  :   512
 total energy-change (2. order) :-0.1411172E-01  (-0.1410617E-01)
 number of electron      51.9999992 magnetization 
 augmentation part        0.6656525 magnetization 

 Broyden mixing:
  rms(total) = 0.30321E+01    rms(broyden)= 0.30321E+01
  rms(prec ) = 0.31572E+01
  weight for this iteration     100.00

 Free energy of the ion-electron system (eV)
  ---------------------------------------------------
  alpha Z        PSCENC =       160.27286088
  Ewald energy   TEWEN  =     -2953.99340223
  -Hartree energ DENC   =     -1797.55337657
  -exchange      EXHF   =         0.00000000
  -V(xc)+E(xc)   XCENC  =       182.11461537
  PAW double counting   =      3865.57804258    -3815.84821480
  entropy T*S    EENTRO =        -0.00000000
  eigenvalues    EBANDS =      -518.26650668
  atomic energy  EATOM  =      4831.84262874
  Solvation  Ediel_sol  =         0.00000000
  ---------------------------------------------------
  free energy    TOTEN  =       -45.85335270 eV

  energy without entropy =      -45.85335270  energy(sigma->0) =      -45.85335270


--------------------------------------------------------------------------------------------------------




--------------------------------------- Iteration      1(   6)  ---------------------------------------


    POTLOK:  cpu time    0.0557: real time    0.0594
    SETDIJ:  cpu time    0.0055: real time    0.0055
     EDDAV:  cpu time    0.3653: real time    0.3653
       DOS:  cpu time    0.0004: real time    0.0004
    CHARGE:  cpu time    0.0371: real time    0.0371
    MIXING:  cpu time    0.0015: real time    0.0015
    --------------------------------------------
      LOOP:  cpu time    0.4654: real time    0.4692

 eigenvalue-minimisations  :   400
 total energy-change (2. order) : 0.1501249E+01  (-0.2673303E+01)
 number of electron      51.9999990 magnetization 
 augmentation part        2.1733692 magnetization 

 Broyden mixing:
  rms(total) = 0.14007E+01    rms(broyden)= 0.14007E+01
  rms(prec ) = 0.16601E+01
  weight for this iteration     100.00

 eigenvalues of (default mixing * dielectric matrix)
  average eigenvalue GAMMA=   1.0043
  1.0043

 Free energy of the ion-electron system (eV)
  ---------------------------------------------------
  alpha Z        PSCENC =       160.27286088
  Ewald energy   TEWEN  =     -2953.99340223
  -Hartree energ DENC   =     -1733.04949922
  -exchange      EXHF   =         0.00000000
  -V(xc)+E(xc)   XCENC  =       180.37827068
  PAW double counting   =      4467.07948278    -4424.30179978
  entropy T*S    EENTRO =        -0.00000001
  eigenvalues    EBANDS =      -572.58064515
  atomic energy  EATOM  =      4831.84262874
  Solvation  Ediel_sol  =         0.00000000
  ---------------------------------------------------
  free energy    TOTEN  =       -44.35210330 eV

  energy without entropy =      -44.35210330  energy(sigma->0) =      -44.35210330


--------------------------------------------------------------------------------------------------------




--------------------------------------- Iteration      1(   7)  ---------------------------------------


    POTLOK:  cpu time    0.0550: real time    0.0588
    SETDIJ:  cpu time    0.0054: real time    0.0054
     EDDAV:  cpu time    0.3726: real time    0.3731
       DOS:  cpu time    0.0004: real time    0.0004
    CHARGE:  cpu time    0.0378: real time    0.0378
    MIXING:  cpu time    0.0014: real time    0.0014
    --------------------------------------------
      LOOP:  cpu time    0.4727: real time    0.4769

 eigenvalue-minimisations  :   408
 total energy-change (2. order) : 0.5553596E+00  (-0.2299393E+01)
 number of electron      51.9999991 magnetization 
 augmentation part        1.1519788 magnetization 

 Broyden mixing:
  rms(total) = 0.88524E+00    rms(broyden)= 0.88523E+00
  rms(prec ) = 0.11109E+01
  weight for this iteration     100.00

 eigenvalues of (default mixing * dielectric matrix)
  average eigenvalue GAMMA=   1.0568
  1.5816  0.5320

 Free energy of the ion-electron system (eV)
  ---------------------------------------------------
  alpha Z        PSCENC =       160.27286088
  Ewald energy   TEWEN  =     -2953.99340223
  -Hartree energ DENC   =     -1781.11485657
  -exchange      EXHF   =         0.00000000
  -V(xc)+E(xc)   XCENC  =       181.17654766
  PAW double counting   =      4959.39420419    -4914.17875556
  entropy T*S    EENTRO =        -0.00000002
  eigenvalues    EBANDS =      -527.19597083
  atomic energy  EATOM  =      4831.84262874
  Solvation  Ediel_sol  =         0.00000000
  ---------------------------------------------------
  free energy    TOTEN  =       -43.79674374 eV

  energy without entropy =      -43.79674372  energy(sigma->0) =      -43.79674373


--------------------------------------------------------------------------------------------------------




--------------------------------------- Iteration      1(   8)  ---------------------------------------


    POTLOK:  cpu time    0.0550: real time    0.0587
    SETDIJ:  cpu time    0.0053: real time    0.0054
     EDDAV:  cpu time    0.4128: real time    0.4128
       DOS:  cpu time    0.0005: real time    0.0005
    CHARGE:  cpu time    0.0377: real time    0.0377
    MIXING:  cpu time    0.0014: real time    0.0014
    --------------------------------------------
      LOOP:  cpu time    0.5128: real time    0.5166

 eigenvalue-minimisations  :   472
 total energy-change (2. order) : 0.1090512E+01  (-0.4129816E+00)
 number of electron      51.9999991 magnetization 
 augmentation part        1.4861414 magnetization 

 Broyden mixing:
  rms(total) = 0.41895E+00    rms(broyden)= 0.41895E+00
  rms(prec ) = 0.43985E+00
  weight for this iteration     100.00

 eigenvalues of (default mixing * dielectric matrix)
  average eigenvalue GAMMA=   1.0966
  2.0866  0.7314  0.4717

 Free energy of the ion-electron system (eV)
  ---------------------------------------------------
  alpha Z        PSCENC =       160.27286088
  Ewald energy   TEWEN  =     -2953.99340223
  -Hartree energ DENC   =     -1761.53787264
  -exchange      EXHF   =         0.00000000
  -V(xc)+E(xc)   XCENC  =       180.74382249
  PAW double counting   =      5350.14357803    -5307.05517421
  entropy T*S    EENTRO =        -0.00000040
  eigenvalues    EBANDS =      -543.12267212
  atomic energy  EATOM  =      4831.84262874
  Solvation  Ediel_sol  =         0.00000000
  ---------------------------------------------------
  free energy    TOTEN  =       -42.70623146 eV

  energy without entropy =      -42.70623106  energy(sigma->0) =      -42.70623126


--------------------------------------------------------------------------------------------------------




--------------------------------------- Iteration      1(   9)  ---------------------------------------


    POTLOK:  cpu time    0.0549: real time    0.0579
    SETDIJ:  cpu time    0.0054: real time    0.0054
     EDDAV:  cpu time    0.3929: real time    0.3930
       DOS:  cpu time    0.0005: real time    0.0005
    CHARGE:  cpu time    0.0378: real time    0.0378
    MIXING:  cpu time    0.0016: real time    0.0016
    --------------------------------------------
      LOOP:  cpu time    0.4931: real time    0.4962

 eigenvalue-minimisations  :   432
 total energy-change (2. order) : 0.2803972E-01  (-0.5505798E-01)
 number of electron      51.9999990 magnetization 
 augmentation part        1.5981736 magnetization 

 Broyden mixing:
  rms(total) = 0.12580E+00    rms(broyden)= 0.12580E+00
  rms(prec ) = 0.14167E+00
  weight for this iteration     100.00

 eigenvalues of (default mixing * dielectric matrix)
  average eigenvalue GAMMA=   1.0772
  2.2533  1.0010  0.5273  0.5273

 Free energy of the ion-electron system (eV)
  ---------------------------------------------------
  alpha Z        PSCENC =       160.27286088
  Ewald energy   TEWEN  =     -2953.99340223
  -Hartree energ DENC   =     -1756.97769422
  -exchange      EXHF   =         0.00000000
  -V(xc)+E(xc)   XCENC  =       180.61385374
  PAW double counting   =      5594.71281301    -5552.44044589
  entropy T*S    EENTRO =        -0.00000049
  eigenvalues    EBANDS =      -546.70880530
  atomic energy  EATOM  =      4831.84262874
  Solvation  Ediel_sol  =         0.00000000
  ---------------------------------------------------
  free energy    TOTEN  =       -42.67819175 eV

  energy without entropy =      -42.67819126  energy(sigma->0) =      -42.67819150


--------------------------------------------------------------------------------------------------------




--------------------------------------- Iteration      1(  10)  ---------------------------------------


    POTLOK:  cpu time    0.0567: real time    0.0579
    SETDIJ:  cpu time    0.0054: real time    0.0054
     EDDAV:  cpu time    0.4405: real time    0.4405
       DOS:  cpu time    0.0005: real time    0.0005
    CHARGE:  cpu time    0.0374: real time    0.0374
    MIXING:  cpu time    0.0015: real time    0.0015
    --------------------------------------------
      LOOP:  cpu time    0.5419: real time    0.5432

 eigenvalue-minimisations  :   512
 total energy-change (2. order) : 0.7185499E-02  (-0.3584410E-02)
 number of electron      51.9999990 magnetization 
 augmentation part        1.5811338 magnetization 

 Broyden mixing:
  rms(total) = 0.62702E-01    rms(broyden)= 0.62702E-01
  rms(prec ) = 0.71533E-01
  weight for this iteration     100.00

 eigenvalues of (default mixing * dielectric matrix)
  average eigenvalue GAMMA=   1.1167
  2.1210  1.4721  0.8646  0.5253  0.6005

 Free energy of the ion-electron system (eV)
  ---------------------------------------------------
  alpha Z        PSCENC =       160.27286088
  Ewald energy   TEWEN  =     -2953.99340223
  -Hartree energ DENC   =     -1758.54406397
  -exchange      EXHF   =         0.00000000
  -V(xc)+E(xc)   XCENC  =       180.65090564
  PAW double counting   =      5647.72265748    -5605.47466648
  entropy T*S    EENTRO =        -0.00000056
  eigenvalues    EBANDS =      -545.14792576
  atomic energy  EATOM  =      4831.84262874
  Solvation  Ediel_sol  =         0.00000000
  ---------------------------------------------------
  free energy    TOTEN  =       -42.67100625 eV

  energy without entropy =      -42.67100569  energy(sigma->0) =      -42.67100597


--------------------------------------------------------------------------------------------------------




--------------------------------------- Iteration      1(  11)  ---------------------------------------


    POTLOK:  cpu time    0.0548: real time    0.0582
    SETDIJ:  cpu time    0.0054: real time    0.0054
     EDDAV:  cpu time    0.3980: real time    0.3981
       DOS:  cpu time    0.0005: real time    0.0005
    CHARGE:  cpu time    0.0372: real time    0.0372
    MIXING:  cpu time    0.0015: real time    0.0015
    --------------------------------------------
      LOOP:  cpu time    0.4974: real time    0.5009

 eigenvalue-minimisations  :   448
 total energy-change (2. order) : 0.1903733E-02  (-0.1726672E-02)
 number of electron      51.9999991 magnetization 
 augmentation part        1.5517132 magnetization 

 Broyden mixing:
  rms(total) = 0.25935E-01    rms(broyden)= 0.25935E-01
  rms(prec ) = 0.27866E-01
  weight for this iteration     100.00

 eigenvalues of (default mixing * dielectric matrix)
  average eigenvalue GAMMA=   1.2143
  2.2258  2.2258  1.0180  0.5195  0.6485  0.6485

 Free energy of the ion-electron system (eV)
  ---------------------------------------------------
  alpha Z        PSCENC =       160.27286088
  Ewald energy   TEWEN  =     -2953.99340223
  -Hartree energ DENC   =     -1760.03077337
  -exchange      EXHF   =         0.00000000
  -V(xc)+E(xc)   XCENC  =       180.69553393
  PAW double counting   =      5634.78826139    -5592.43129150
  entropy T*S    EENTRO =        -0.00000051
  eigenvalues    EBANDS =      -543.81291984
  atomic energy  EATOM  =      4831.84262874
  Solvation  Ediel_sol  =         0.00000000
  ---------------------------------------------------
  free energy    TOTEN  =       -42.66910252 eV

  energy without entropy =      -42.66910200  energy(sigma->0) =      -42.66910226


--------------------------------------------------------------------------------------------------------




--------------------------------------- Iteration      1(  12)  ---------------------------------------


    POTLOK:  cpu time    0.0548: real time    0.0585
    SETDIJ:  cpu time    0.0054: real time    0.0054
     EDDAV:  cpu time    0.4291: real time    0.4291
       DOS:  cpu time    0.0005: real time    0.0005
    CHARGE:  cpu time    0.0371: real time    0.0371
    MIXING:  cpu time    0.0016: real time    0.0016
    --------------------------------------------
      LOOP:  cpu time    0.5286: real time    0.5323

 eigenvalue-minimisations  :   496
 total energy-change (2. order) :-0.9444755E-04  (-0.2047291E-03)
 number of electron      51.9999991 magnetization 
 augmentation part        1.5563222 magnetization 

 Broyden mixing:
  rms(total) = 0.10282E-01    rms(broyden)= 0.10282E-01
  rms(prec ) = 0.11722E-01
  weight for this iteration     100.00

 eigenvalues of (default mixing * dielectric matrix)
  average eigenvalue GAMMA=   1.1842
  2.1686  2.1686  1.0921  0.5191  0.5992  0.8709  0.8709

 Free energy of the ion-electron system (eV)
  ---------------------------------------------------
  alpha Z        PSCENC =       160.27286088
  Ewald energy   TEWEN  =     -2953.99340223
  -Hartree energ DENC   =     -1760.22321323
  -exchange      EXHF   =         0.00000000
  -V(xc)+E(xc)   XCENC  =       180.70705948
  PAW double counting   =      5638.76805570    -5596.42612858
  entropy T*S    EENTRO =        -0.00000048
  eigenvalues    EBANDS =      -543.61705725
  atomic energy  EATOM  =      4831.84262874
  Solvation  Ediel_sol  =         0.00000000
  ---------------------------------------------------
  free energy    TOTEN  =       -42.66919696 eV

  energy without entropy =      -42.66919649  energy(sigma->0) =      -42.66919672


--------------------------------------------------------------------------------------------------------




--------------------------------------- Iteration      1(  13)  ---------------------------------------


    POTLOK:  cpu time    0.0548: real time    0.0582
    SETDIJ:  cpu time    0.0055: real time    0.0056
     EDDAV:  cpu time    0.4320: real time    0.4322
       DOS:  cpu time    0.0005: real time    0.0005
    CHARGE:  cpu time    0.0371: real time    0.0371
    MIXING:  cpu time    0.0016: real time    0.0016
    --------------------------------------------
      LOOP:  cpu time    0.5316: real time    0.5352

 eigenvalue-minimisations  :   496
 total energy-change (2. order) : 0.1176052E-05  (-0.4519493E-04)
 number of electron      51.9999991 magnetization 
 augmentation part        1.5542922 magnetization 

 Broyden mixing:
  rms(total) = 0.73620E-02    rms(broyden)= 0.73619E-02
  rms(prec ) = 0.80856E-02
  weight for this iteration     100.00

 eigenvalues of (default mixing * dielectric matrix)
  average eigenvalue GAMMA=   1.1528
  2.2615  2.2615  1.0696  0.9388  0.9388  0.5160  0.6179  0.6179

 Free energy of the ion-electron system (eV)
  ---------------------------------------------------
  alpha Z        PSCENC =       160.27286088
  Ewald energy   TEWEN  =     -2953.99340223
  -Hartree energ DENC   =     -1760.37824135
  -exchange      EXHF   =         0.00000000
  -V(xc)+E(xc)   XCENC  =       180.71063382
  PAW double counting   =      5634.23785742    -5591.88576779
  entropy T*S    EENTRO =        -0.00000050
  eigenvalues    EBANDS =      -543.47576478
  atomic energy  EATOM  =      4831.84262874
  Solvation  Ediel_sol  =         0.00000000
  ---------------------------------------------------
  free energy    TOTEN  =       -42.66919579 eV

  energy without entropy =      -42.66919529  energy(sigma->0) =      -42.66919554


--------------------------------------------------------------------------------------------------------




--------------------------------------- Iteration      1(  14)  ---------------------------------------


    POTLOK:  cpu time    0.0549: real time    0.0584
    SETDIJ:  cpu time    0.0054: real time    0.0054
     EDDAV:  cpu time    0.4127: real time    0.4127
       DOS:  cpu time    0.0005: real time    0.0005
    CHARGE:  cpu time    0.0371: real time    0.0371
    MIXING:  cpu time    0.0017: real time    0.0017
    --------------------------------------------
      LOOP:  cpu time    0.5122: real time    0.5159

 eigenvalue-minimisations  :   472
 total energy-change (2. order) :-0.9275446E-05  (-0.9324269E-05)
 number of electron      51.9999991 magnetization 
 augmentation part        1.5557530 magnetization 

 Broyden mixing:
  rms(total) = 0.47609E-02    rms(broyden)= 0.47609E-02
  rms(prec ) = 0.50391E-02
  weight for this iteration     100.00

 eigenvalues of (default mixing * dielectric matrix)
  average eigenvalue GAMMA=   1.2458
  2.4278  2.4278  1.5707  1.2626  0.5163  0.6212  0.8221  0.8221  0.7418

 Free energy of the ion-electron system (eV)
  ---------------------------------------------------
  alpha Z        PSCENC =       160.27286088
  Ewald energy   TEWEN  =     -2953.99340223
  -Hartree energ DENC   =     -1760.40697608
  -exchange      EXHF   =         0.00000000
  -V(xc)+E(xc)   XCENC  =       180.71204611
  PAW double counting   =      5633.87501039    -5591.52685334
  entropy T*S    EENTRO =        -0.00000049
  eigenvalues    EBANDS =      -543.44451905
  atomic energy  EATOM  =      4831.84262874
  Solvation  Ediel_sol  =         0.00000000
  ---------------------------------------------------
  free energy    TOTEN  =       -42.66920506 eV

  energy without entropy =      -42.66920457  energy(sigma->0) =      -42.66920482


--------------------------------------------------------------------------------------------------------




--------------------------------------- Iteration      1(  15)  ---------------------------------------


    POTLOK:  cpu time    0.0548: real time    0.0581
    SETDIJ:  cpu time    0.0054: real time    0.0054
     EDDAV:  cpu time    0.4196: real time    0.4198
       DOS:  cpu time    0.0005: real time    0.0005
    CHARGE:  cpu time    0.0371: real time    0.0371
    MIXING:  cpu time    0.0017: real time    0.0017
    --------------------------------------------
      LOOP:  cpu time    0.5191: real time    0.5226

 eigenvalue-minimisations  :   480
 total energy-change (2. order) :-0.1729155E-04  (-0.5500264E-05)
 number of electron      51.9999991 magnetization 
 augmentation part        1.5565980 magnetization 

 Broyden mixing:
  rms(total) = 0.10996E-02    rms(broyden)= 0.10996E-02
  rms(prec ) = 0.11749E-02
  weight for this iteration     100.00

 eigenvalues of (default mixing * dielectric matrix)
  average eigenvalue GAMMA=   1.2508
  2.6065  2.2535  1.8586  1.2663  0.9862  0.9862  0.5163  0.6197  0.7073  0.7073

 Free energy of the ion-electron system (eV)
  ---------------------------------------------------
  alpha Z        PSCENC =       160.27286088
  Ewald energy   TEWEN  =     -2953.99340223
  -Hartree energ DENC   =     -1760.45172534
  -exchange      EXHF   =         0.00000000
  -V(xc)+E(xc)   XCENC  =       180.71417444
  PAW double counting   =      5632.75950859    -5590.41179253
  entropy T*S    EENTRO =        -0.00000049
  eigenvalues    EBANDS =      -543.40147442
  atomic energy  EATOM  =      4831.84262874
  Solvation  Ediel_sol  =         0.00000000
  ---------------------------------------------------
  free energy    TOTEN  =       -42.66922235 eV

  energy without entropy =      -42.66922186  energy(sigma->0) =      -42.66922211


--------------------------------------------------------------------------------------------------------




--------------------------------------- Iteration      1(  16)  ---------------------------------------


    POTLOK:  cpu time    0.0549: real time    0.0580
    SETDIJ:  cpu time    0.0054: real time    0.0054
     EDDAV:  cpu time    0.3843: real time    0.3844
       DOS:  cpu time    0.0005: real time    0.0005
    CHARGE:  cpu time    0.0373: real time    0.0374
    MIXING:  cpu time    0.0019: real time    0.0019
    --------------------------------------------
      LOOP:  cpu time    0.4844: real time    0.4876

 eigenvalue-minimisations  :   424
 total energy-change (2. order) :-0.2858640E-05  (-0.4347580E-06)
 number of electron      51.9999991 magnetization 
 augmentation part        1.5566706 magnetization 

 Broyden mixing:
  rms(total) = 0.72777E-03    rms(broyden)= 0.72777E-03
  rms(prec ) = 0.77667E-03
  weight for this iteration     100.00

 eigenvalues of (default mixing * dielectric matrix)
  average eigenvalue GAMMA=   1.2740
  2.6792  2.0208  1.9210  1.9210  1.1380  0.5163  0.9245  0.6238  0.7051  0.7821
  0.7821

 Free energy of the ion-electron system (eV)
  ---------------------------------------------------
  alpha Z        PSCENC =       160.27286088
  Ewald energy   TEWEN  =     -2953.99340223
  -Hartree energ DENC   =     -1760.46006506
  -exchange      EXHF   =         0.00000000
  -V(xc)+E(xc)   XCENC  =       180.71467021
  PAW double counting   =      5632.91844229    -5590.57055662
  entropy T*S    EENTRO =        -0.00000049
  eigenvalues    EBANDS =      -543.39380293
  atomic energy  EATOM  =      4831.84262874
  Solvation  Ediel_sol  =         0.00000000
  ---------------------------------------------------
  free energy    TOTEN  =       -42.66922521 eV

  energy without entropy =      -42.66922472  energy(sigma->0) =      -42.66922497


--------------------------------------------------------------------------------------------------------




--------------------------------------- Iteration      1(  17)  ---------------------------------------


    POTLOK:  cpu time    0.0548: real time    0.0575
    SETDIJ:  cpu time    0.0054: real time    0.0054
     EDDAV:  cpu time    0.3097: real time    0.3101
       DOS:  cpu time    0.0007: real time    0.0007
    --------------------------------------------
      LOOP:  cpu time    0.3707: real time    0.3736

 eigenvalue-minimisations  :   296
 total energy-change (2. order) :-0.3478754E-06  (-0.9432953E-07)
 number of electron      51.9999991 magnetization 
 augmentation part        1.5566706 magnetization 

 Free energy of the ion-electron system (eV)
  ---------------------------------------------------
  alpha Z        PSCENC =       160.27286088
  Ewald energy   TEWEN  =     -2953.99340223
  -Hartree energ DENC   =     -1760.46222923
  -exchange      EXHF   =         0.00000000
  -V(xc)+E(xc)   XCENC  =       180.71489960
  PAW double counting   =      5633.12317550    -5590.77484274
  entropy T*S    EENTRO =        -0.00000049
  eigenvalues    EBANDS =      -543.39231559
  atomic energy  EATOM  =      4831.84262874
  Solvation  Ediel_sol  =         0.00000000
  ---------------------------------------------------
  free energy    TOTEN  =       -42.66922556 eV

  energy without entropy =      -42.66922507  energy(sigma->0) =      -42.66922531


--------------------------------------------------------------------------------------------------------




 average (electrostatic) potential at core
  the test charge radii are     1.0818  0.9698
  (the norm of the test charge is              1.0000)
       1 -76.0548       2 -75.8965       3 -85.6133       4 -85.6434       5 -85.6111
       6 -85.7057
 
 
 
 E-fermi :   6.3811     XC(G=0): -10.2524     alpha+bet :-12.2268

 Fermi energy:         6.3810871856

 k-point     1 :       0.2500    0.2500    0.0000
  band No.  band energies     occupation 
      1     -55.2438      2.00000
      2     -55.1054      2.00000
      3     -29.5011      2.00000
      4     -29.3709      2.00000
      5     -29.3428      2.00000
      6     -29.2542      2.00000
      7     -29.2311      2.00000
      8     -29.2022      2.00000
      9      -6.5405      2.00000
     10      -6.4915      2.00000
     11      -6.3051      2.00000
     12      -5.9265      2.00000
     13       0.6304      2.00000
     14       0.7490      2.00000
     15       0.8443      2.00000
     16       1.5871      2.00000
     17       2.0222      2.00000
     18       2.0839      2.00000
     19       2.5207      2.00000
     20       2.6747      2.00000
     21       2.8205      2.00000
     22       2.9668      2.00000
     23       3.4490      2.00000
     24       4.0649      2.00000
     25       5.2344      2.00000
     26       6.1161      2.00000
     27       6.5543      0.00000
     28       7.8245      0.00000
     29       8.1392      0.00000
     30       8.4321      0.00000
     31       8.6562      0.00000
     32       8.8109      0.00000

 k-point     2 :      -0.2500    0.5000    0.0000
  band No.  band energies     occupation 
      1     -55.2438      2.00000
      2     -55.1054      2.00000
      3     -29.5004      2.00000
      4     -29.3698      2.00000
      5     -29.3427      2.00000
      6     -29.2542      2.00000
      7     -29.2328      2.00000
      8     -29.2023      2.00000
      9      -6.5405      2.00000
     10      -6.4904      2.00000
     11      -6.3052      2.00000
     12      -5.9263      2.00000
     13       0.6307      2.00000
     14       0.7517      2.00000
     15       0.8447      2.00000
     16       1.5814      2.00000
     17       2.0240      2.00000
     18       2.0831      2.00000
     19       2.5183      2.00000
     20       2.6694      2.00000
     21       2.8190      2.00000
     22       2.9609      2.00000
     23       3.4638      2.00000
     24       4.0645      2.00000
     25       5.2344      2.00000
     26       6.1114      2.00000
     27       6.5603      0.00000
     28       7.8244      0.00000
     29       8.1399      0.00000
     30       8.4363      0.00000
     31       8.6591      0.00000
     32       8.8109      0.00000

 k-point     3 :       0.5000    0.2500    0.0000
  band No.  band energies     occupation 
      1     -55.2440      2.00000
      2     -55.1054      2.00000
      3     -29.4359      2.00000
      4     -29.3435      2.00000
      5     -29.3400      2.00000
      6     -29.3260      2.00000
      7     -29.2543      2.00000
      8     -29.2015      2.00000
      9      -6.5429      2.00000
     10      -6.4771      2.00000
     11      -6.3085      2.00000
     12      -5.9166      2.00000
     13       0.6344      2.00000
     14       0.8199      2.00000
     15       0.8658      2.00000
     16       1.4658      2.00000
     17       2.0387      2.00000
     18       2.0783      2.00000
     19       2.4911      2.00000
     20       2.6117      2.00000
     21       2.7723      2.00000
     22       2.8362      2.00000
     23       3.6822      2.00000
     24       4.0558      2.00000
     25       5.2343      2.00000
     26       6.2240      1.99999
     27       6.5395      0.00001
     28       7.8062      0.00000
     29       8.1198      0.00000
     30       8.5204      0.00000
     31       8.7848      0.00000
     32       8.8062      0.00000

 k-point     4 :      -0.2500    0.2500    0.0000
  band No.  band energies     occupation 
      1     -55.2610      2.00000
      2     -55.1233      2.00000
      3     -29.4447      2.00000
      4     -29.3035      2.00000
      5     -29.2901      2.00000
      6     -29.2326      2.00000
      7     -29.1788      2.00000
      8     -29.0923      2.00000
      9      -7.5445      2.00000
     10      -7.2891      2.00000
     11      -6.7842      2.00000
     12      -6.5943      2.00000
     13       0.6569      2.00000
     14       1.2148      2.00000
     15       1.7447      2.00000
     16       1.9580      2.00000
     17       2.1692      2.00000
     18       2.7190      2.00000
     19       3.1920      2.00000
     20       3.2424      2.00000
     21       3.9001      2.00000
     22       3.9499      2.00000
     23       4.4932      2.00000
     24       4.7075      2.00000
     25       5.0239      2.00000
     26       5.5577      2.00000
     27       6.6721      0.00000
     28       7.1820      0.00000
     29       7.9602      0.00000
     30       8.0716      0.00000
     31       8.5211      0.00000
     32       8.9863      0.00000

 k-point     5 :      -0.2500    0.0000    0.0000
  band No.  band energies     occupation 
      1     -55.2610      2.00000
      2     -55.1233      2.00000
      3     -29.4443      2.00000
      4     -29.3067      2.00000
      5     -29.2901      2.00000
      6     -29.2326      2.00000
      7     -29.1761      2.00000
      8     -29.0923      2.00000
      9      -7.5443      2.00000
     10      -7.2869      2.00000
     11      -6.7849      2.00000
     12      -6.5969      2.00000
     13       0.6581      2.00000
     14       1.2205      2.00000
     15       1.7404      2.00000
     16       1.9577      2.00000
     17       2.1682      2.00000
     18       2.7069      2.00000
     19       3.2004      2.00000
     20       3.2427      2.00000
     21       3.9055      2.00000
     22       3.9501      2.00000
     23       4.4847      2.00000
     24       4.6998      2.00000
     25       5.0228      2.00000
     26       5.5751      2.00000
     27       6.6791      0.00000
     28       7.1895      0.00000
     29       7.9631      0.00000
     30       8.0715      0.00000
     31       8.5201      0.00000
     32       8.9858      0.00000

 k-point     6 :       0.0000   -0.2500    0.0000
  band No.  band energies     occupation 
      1     -55.2608      2.00000
      2     -55.1233      2.00000
      3     -29.4588      2.00000
      4     -29.3580      2.00000
      5     -29.2901      2.00000
      6     -29.2318      2.00000
      7     -29.1115      2.00000
      8     -29.0931      2.00000
      9      -7.5422      2.00000
     10      -7.2488      2.00000
     11      -6.8013      2.00000
     12      -6.6379      2.00000
     13       0.6748      2.00000
     14       1.2840      2.00000
     15       1.6523      2.00000
     16       1.9657      2.00000
     17       2.1545      2.00000
     18       2.5918      2.00000
     19       3.2402      2.00000
     20       3.4518      2.00000
     21       3.8423      2.00000
     22       3.9490      2.00000
     23       4.4098      2.00000
     24       4.9914      2.00000
     25       5.0046      2.00000
     26       5.1770      2.00000
     27       6.7653      0.00000
     28       7.4425      0.00000
     29       8.0029      0.00000
     30       8.0727      0.00000
     31       8.4915      0.00000
     32       9.0954      0.00000


--------------------------------------------------------------------------------------------------------


 soft charge-density along one line, spin component           1
         0         1         2         3         4         5         6         7         8         9
 total charge-density along one line
 
 pseudopotential strength for first ion, spin component:           1
 -5.048  11.473   0.001  -0.008   0.002   0.001   0.000   0.002
 11.473   3.259   0.001  -0.002   0.001  -0.001   0.001  -0.002
  0.001   0.001 -18.162  -0.004  -0.013   8.993   0.005   0.015
 -0.008  -0.002  -0.004 -18.198  -0.007   0.005   9.034   0.008
  0.002   0.001  -0.013  -0.007 -18.177   0.015   0.008   9.012
  0.001  -0.001   8.993   0.005   0.015   5.704  -0.003  -0.008
  0.000   0.001   0.005   9.034   0.008  -0.003   5.679  -0.004
  0.002  -0.002   0.015   0.008   9.012  -0.008  -0.004   5.694
 -0.017   0.010   0.000  -0.001   0.005   0.001   0.000  -0.002
 -0.005   0.003  -0.001  -0.002  -0.001  -0.001   0.001   0.000
 -0.018   0.010  -0.001  -0.003  -0.002   0.000  -0.001   0.000
 -0.008   0.005  -0.001  -0.003  -0.002   0.000   0.002  -0.001
 -0.010   0.006   0.005  -0.001   0.000  -0.003   0.000   0.001
 -0.017   0.010   0.001  -0.001   0.006   0.001   0.000  -0.002
 -0.005   0.003  -0.001  -0.002  -0.001  -0.001   0.001   0.000
 -0.019   0.010  -0.001  -0.003  -0.002   0.000  -0.001   0.000
 -0.008   0.005  -0.001  -0.003  -0.002   0.000   0.002  -0.001
 -0.010   0.006   0.005  -0.001   0.000  -0.003   0.000   0.001
 total augmentation occupancy for first ion, spin component:           1
  1.995  -0.042  -0.000   0.000  -0.000  -0.000   0.000  -0.000   0.025   0.006   0.036   0.008   0.015  -0.023  -0.005  -0.033
 -0.042   1.153  -0.003   0.009  -0.006   0.012  -0.045   0.020  -0.169  -0.088  -0.133  -0.152  -0.109   0.142   0.116   0.223
 -0.000  -0.003   1.997   0.000   0.000  -0.042  -0.001  -0.001  -0.002   0.017  -0.002  -0.003   0.005   0.000  -0.009   0.001
  0.000   0.009   0.000   1.997   0.000  -0.001  -0.050  -0.002  -0.001  -0.008   0.007  -0.013  -0.000   0.000   0.003  -0.007
 -0.000  -0.006   0.000   0.000   1.998  -0.001  -0.002  -0.043   0.003  -0.003  -0.004   0.013  -0.002   0.000   0.001   0.001
 -0.000   0.012  -0.042  -0.001  -0.001   0.080   0.006   0.004  -0.009   0.131  -0.013  -0.030   0.056   0.013  -0.148   0.019
  0.000  -0.045  -0.001  -0.050  -0.002   0.006   0.108   0.010  -0.041  -0.027  -0.010  -0.046  -0.026   0.039   0.042   0.008
 -0.000   0.020  -0.001  -0.002  -0.043   0.004   0.010   0.086   0.045  -0.030  -0.022   0.092  -0.009  -0.058   0.037   0.032
  0.025  -0.169  -0.002  -0.001   0.003  -0.009  -0.041   0.045   2.270   0.099   0.224   0.988   0.090  -2.200  -0.158  -0.126
  0.006  -0.088   0.017  -0.008  -0.003   0.131  -0.027  -0.030   0.099   2.835   0.091   0.320   0.873  -0.159  -3.360  -0.193
  0.036  -0.133  -0.002   0.007  -0.004  -0.013  -0.010  -0.022   0.224   0.091   1.548   0.166   0.138  -0.128  -0.192  -1.645
  0.008  -0.152  -0.003  -0.013   0.013  -0.030  -0.046   0.092   0.988   0.320   0.166   3.243   0.103  -1.470  -0.402  -0.335
  0.015  -0.109   0.005  -0.000  -0.002   0.056  -0.026  -0.009   0.090   0.873   0.138   0.103   2.164  -0.004  -1.281  -0.079
 -0.023   0.142   0.000   0.000   0.000   0.013   0.039  -0.058  -2.200  -0.159  -0.128  -1.470  -0.004   3.018   0.202   0.104
 -0.005   0.116  -0.009   0.003   0.001  -0.148   0.042   0.037  -0.158  -3.360  -0.192  -0.402  -1.281   0.202   4.573   0.261
 -0.033   0.223   0.001  -0.007   0.001   0.019   0.008   0.032  -0.126  -0.193  -1.645  -0.335  -0.079   0.104   0.261   2.496
 -0.007   0.197   0.001   0.005  -0.009   0.037   0.072  -0.099  -1.468  -0.402  -0.333  -3.877  -0.161   1.830   0.480   0.449
 -0.014   0.091  -0.000   0.000   0.000  -0.074   0.025   0.013  -0.004  -1.282  -0.080  -0.163  -2.204  -0.025   1.590   0.066


------------------------ aborting loop because EDIFF is reached ----------------------------------------


    CHARGE:  cpu time    0.0377: real time    0.0378
    FORLOC:  cpu time    0.0047: real time    0.0047
    FORNL :  cpu time    0.0733: real time    0.0733
    STRESS:  cpu time    0.1509: real time    0.1510
    FORCOR:  cpu time    0.0592: real time    0.0592
    FORHAR:  cpu time    0.0146: real time    0.0146
    MIXING:  cpu time    0.0019: real time    0.0019
    OFIELD:  cpu time    0.0000: real time    0.0000

 ---------------------------------------------------------------------------------------------

         DFTD3 V3.0 Rev 1        
 IVDW         = 12
 DF pbe       
 parameters
 VDW_S6       =    1.0000
 VDW_S8       =    0.7875
 VDW_A1       =    0.4289
 VDW_A2       =    4.4407
 k1-k3        =   16.0000    1.3333   -4.0000
 VDW_RADIUS   =   50.2022 A
 VDW_CNRADIUS =   21.1671 A
 Edisp (eV)   -2.30952

 E6    (eV) :    -1.3754
 E8    (eV) :    -0.9341
 % E8        : 40.45
    FORVDW:  cpu time    0.0373: real time    0.0373

  FORCE on cell =-STRESS in cart. coord.  units (eV):
  Direction    XX          YY          ZZ          XY          YZ          ZX
  --------------------------------------------------------------------------------------
  Alpha Z   160.27286   160.27286   160.27286
  Ewald    -162.40631  -186.33228 -2605.25767    18.20598    13.26189    22.33443
  Hartree  1267.82137  1259.67728  -767.00638     6.06953     4.20342     7.08503
  E(xc)    -218.43547  -218.45788  -218.70164     0.01528     0.01957     0.03302
  Local   -2110.67021 -2081.45728  2362.26594   -21.87631   -17.20748   -29.09331
  n-local   236.37744   235.99910   246.61974     0.27118     1.09757     1.84975
  augment    -1.26856    -0.82601    -4.27210    -0.36289    -0.31909    -0.52687
  Kinetic   826.62766   829.39425   820.14879    -2.23381    -0.41699    -0.63977
  Fock        0.00000     0.00000     0.00000     0.00000     0.00000     0.00000
  vdW        -2.37233    -2.36834    -2.25084    -0.00309    -0.00307    -0.00538
  -------------------------------------------------------------------------------------
  Total      -4.05354    -4.09830    -8.18130     0.08588     0.63582     1.03688
  in kB     -55.00762   -55.61507  -111.02256     1.16538     8.62822    14.07078
  external pressure =      -73.88 kB  Pullay stress =        0.00 kB


 VOLUME and BASIS-vectors are now :
 -----------------------------------------------------------------------------
  energy-cutoff  :      500.00
  volume of cell :      118.07
      direct lattice vectors                 reciprocal lattice vectors
     1.596118927 -2.764559076  0.000000000     0.313259865 -0.180860668  0.000000000
     1.596118927  2.764559076  0.000000000     0.313259865  0.180860668  0.000000000
     0.000000000  0.000000000 13.378293991     0.000000000  0.000000000  0.074747946

  length of vectors
     3.192237854  3.192237854 13.378293991     0.361721335  0.361721335  0.074747946


 FORCES acting on ions
    electron-ion (+dipol)            ewald-force                    non-local-force                 convergence-correction
 -----------------------------------------------------------------------------------------------
   0.132E+02 0.784E+01 -.428E+01   -.123E+02 -.727E+01 0.358E+01   -.109E+01 -.661E+00 0.181E+01   -.773E-04 -.323E-04 -.399E-03
   0.687E-02 0.500E-02 -.384E+02   -.822E-02 -.594E-02 0.384E+02   -.294E-02 -.201E-02 0.991E-02   -.305E-04 0.190E-05 0.127E-02
   0.226E+00 0.134E+00 0.398E+03   -.239E+00 -.142E+00 -.403E+03   0.297E-02 0.166E-02 0.500E+01   -.452E-05 0.253E-06 -.640E-03
   -.132E+02 -.784E+01 -.322E+03   0.126E+02 0.748E+01 0.326E+03   0.996E+00 0.607E+00 -.543E+01   0.661E-04 0.387E-04 0.395E-02
   -.139E-02 -.796E-03 -.431E+03   -.245E-03 -.145E-03 0.436E+03   0.351E-02 0.230E-02 -.503E+01   0.147E-04 0.471E-05 0.278E-02
   0.389E+00 0.245E+00 0.396E+03   -.836E-01 -.605E-01 -.400E+03   -.538E+00 -.329E+00 0.482E+01   -.570E-04 -.396E-04 -.672E-02
 -----------------------------------------------------------------------------------------------
   0.630E+00 0.381E+00 -.118E+01   -.300E-13 0.685E-14 0.568E-13   -.630E+00 -.381E+00 0.118E+01   -.885E-04 -.263E-04 0.240E-03
 
 
 POSITION                                       TOTAL-FORCE (eV/Angst)
 -----------------------------------------------------------------------------------
      1.59612     -0.92152      3.34457        -0.155133     -0.091893      1.118511
      1.59612      0.92152     10.03372        -0.004341     -0.002950      0.005913
      1.59612     -0.92152      8.46956        -0.011525     -0.006694      0.297818
      2.93678     -0.16301      5.20756         0.402157      0.244800     -2.032664
      1.59612     -0.92152     11.59788         0.001870      0.001370     -0.313586
      1.59612      0.92152      1.78041        -0.233028     -0.144634      0.924008
 -----------------------------------------------------------------------------------
    total drift:                                0.000093     -0.000037      0.000233


--------------------------------------------------------------------------------------------------------



  FREE ENERGIE OF THE ION-ELECTRON SYSTEM (eV)
  ---------------------------------------------------
  free  energy   TOTEN  =       -44.97875007 eV

  energy  without entropy=      -44.97874958  energy(sigma->0) =      -44.97874983
 


--------------------------------------------------------------------------------------------------------


    POTLOK:  cpu time    0.0610: real time    0.0610


--------------------------------------------------------------------------------------------------------


 stress matrix after NEB project (eV)
     -4.05354      0.08588      1.03688
      0.08588     -4.09830      0.63582
      1.03688      0.63582     -8.18130
  FORCES: max atom, RMS     2.086476    1.060915
  FORCE total and by dimension    2.598701    2.032664
  Stress total and by dimension   10.155515    8.181304
 writing wavefunctions
     LOOP+:  cpu time    9.3469: real time    9.4118
    4ORBIT:  cpu time    0.0000: real time    0.0000

 total amount of memory used by VASP MPI-rank0    38677. kBytes
=======================================================================

   base      :      30000. kBytes
   nonl-proj :       1371. kBytes
   fftplans  :       2330. kBytes
   grid      :       3750. kBytes
   one-center:         31. kBytes
   wavefun   :       1195. kBytes
 
  
  
 General timing and accounting informations for this job:
 ========================================================
  
                  Total CPU time used (sec):       10.934
                            User time (sec):       10.071
                          System time (sec):        0.863
                         Elapsed time (sec):       11.564
  
                   Maximum memory used (kb):      133836.
                   Average memory used (kb):          N/A
  
                          Minor page faults:        26716
                          Major page faults:            0
                 Voluntary context switches:          965
