 vasp.6.2.0 18Jan21 (build Jul 31 2023 14:19:35) complex                        
  
 executed on             LinuxIFC date 2025.09.17  12:29:15
 running on    8 total cores
 distrk:  each k-point on    8 cores,    1 groups
 distr:  one band on NCORE=   4 cores,    2 groups


--------------------------------------------------------------------------------------------------------


 INCAR:
   SYSTEM = MoS2_SinglePoint_vdW_Coulomb
   PREC = Accurate
   ENCUT = 500
   GGA = PE
   ALGO = Normal
   NELM = 100
   NELMIN = 5
   EDIFF = 1E-6
   ISMEAR = 0
   SIGMA = 0.05
   IBRION = -1
   NSW = 0
   IVDW = 12
   LREAL = .FALSE.
   LCHARG = .TRUE.
   LWAVE = .TRUE.
   NWRITE = 1
   NCORE = 4

 POTCAR:    PAW_PBE Mo_sv 02Feb2006               
 POTCAR:    PAW_PBE S 06Sep2000                   
 POTCAR:    PAW_PBE Mo_sv 02Feb2006               
  local pseudopotential read in
  partial core-charges read in
  partial kinetic energy density read in
  atomic valenz-charges read in
  non local Contribution for L=           0  read in
    real space projection operators read in
  non local Contribution for L=           0  read in
    real space projection operators read in
  non local Contribution for L=           1  read in
    real space projection operators read in
  non local Contribution for L=           1  read in
    real space projection operators read in
  non local Contribution for L=           2  read in
    real space projection operators read in
  non local Contribution for L=           2  read in
    real space projection operators read in
    PAW grid and wavefunctions read in
 
   number of l-projection  operators is LMAX  =           6
   number of lm-projection operators is LMMAX =          18
 
 POTCAR:    PAW_PBE S 06Sep2000                   
  local pseudopotential read in
  partial core-charges read in
  partial kinetic energy density read in
  atomic valenz-charges read in
  non local Contribution for L=           0  read in
    real space projection operators read in
  non local Contribution for L=           0  read in
    real space projection operators read in
  non local Contribution for L=           1  read in
    real space projection operators read in
  non local Contribution for L=           1  read in
    real space projection operators read in
    PAW grid and wavefunctions read in
 
   number of l-projection  operators is LMAX  =           4
   number of lm-projection operators is LMMAX =           8
 
  PAW_PBE Mo_sv 02Feb2006               :
 energy of atom  1       EATOM=-1862.2866
 kinetic energy error for atom=    0.0074 (will be added to EATOM!!)
  PAW_PBE S 06Sep2000                   :
 energy of atom  2       EATOM= -276.8230
 kinetic energy error for atom=    0.0020 (will be added to EATOM!!)
 
 
 POSCAR: Mo S
  positions in direct lattice
  No initial velocities read in
 exchange correlation table for  LEXCH =        8
   RHO(1)=    0.500       N(1)  =     2000
   RHO(2)=  100.500       N(2)  =     4000

 VTST: version 4.0, (05/15/20)

 CHAIN: initializing optimizer
 
 OPT: Using VASP Dynamics algorithm
 CHAIN: Read ICHAIN            0
 
 POSCAR: Mo S
  positions in direct lattice
  No initial velocities read in
 


--------------------------------------------------------------------------------------------------------


 ion  position               nearest neighbor table
   1  0.667  0.333  0.250-   4 2.42   6 2.42   4 2.42   6 2.42   4 2.42   6 2.42
   2  0.333  0.667  0.750-   3 2.42   5 2.42   3 2.42   5 2.42   3 2.42   5 2.42
   3  0.667  0.333  0.633-   2 2.42   2 2.42   2 2.42
   4  0.333  0.667  0.367-   1 2.42   1 2.42   1 2.42
   5  0.667  0.333  0.867-   2 2.42   2 2.42   2 2.42
   6  0.333  0.667  0.133-   1 2.42   1 2.42   1 2.42
 
  LATTYP: Found a hexagonal cell.
 ALAT       =     3.1922378540
 C/A-ratio  =     4.1908825730
  
  Lattice vectors:
  
 A1 = (   1.5961189270,  -2.7645590765,   0.0000000000)
 A2 = (   1.5961189270,   2.7645590765,   0.0000000000)
 A3 = (   0.0000000000,   0.0000000000,  13.3782939911)


Analysis of symmetry for initial positions (statically):
=====================================================================
 Subroutine PRICEL returns:
 Original cell was already a primitive cell.
 

 Routine SETGRP: Setting up the symmetry group for a 
 hexagonal supercell.


 Subroutine GETGRP returns: Found 24 space group operations
 (whereof 12 operations were pure point group operations)
 out of a pool of 24 trial point group operations.


The static configuration has the point symmetry D_3d.
 The point group associated with its full space group is D_6h.


Analysis of symmetry for dynamics (positions and initial velocities):
=====================================================================
 Subroutine PRICEL returns:
 Original cell was already a primitive cell.
 

 Routine SETGRP: Setting up the symmetry group for a 
 hexagonal supercell.


 Subroutine GETGRP returns: Found 24 space group operations
 (whereof 12 operations were pure point group operations)
 out of a pool of 24 trial point group operations.


The dynamic configuration has the point symmetry D_3d.
 The point group associated with its full space group is D_6h.


 Subroutine INISYM returns: Found 24 space group operations
 (whereof 12 operations are pure point group operations),
 and found     1 'primitive' translations


----------------------------------------------------------------------------------------

                                     Primitive cell                                     

  volume of cell :     118.0652

  direct lattice vectors                    reciprocal lattice vectors
     1.596118927 -2.764559076  0.000000000     0.313259865 -0.180860668  0.000000000
     1.596118927  2.764559076  0.000000000     0.313259865  0.180860668  0.000000000
     0.000000000  0.000000000 13.378293991     0.000000000  0.000000000  0.074747946

  length of vectors
     3.192237854  3.192237854 13.378293991     0.361721335  0.361721335  0.074747946

  position of ions in fractional coordinates (direct lattice)
     0.666666667  0.333333333  0.250000000
     0.333333333  0.666666667  0.750000000
     0.666666667  0.333333333  0.633082000
     0.333333333  0.666666667  0.366918000
     0.666666667  0.333333333  0.866918000
     0.333333333  0.666666667  0.133082000

  ion indices of the primitive-cell ions
   primitive index   ion index
                 1           1
                 2           2
                 3           3
                 4           4
                 5           5
                 6           6

----------------------------------------------------------------------------------------

 
 
 KPOINTS: K-Spacing Value to Generate K-Mesh: 0.15

Automatic generation of k-mesh.
 Grid dimensions read from file:
 generate k-points for:    2    2    1

 Generating k-lattice:

  Cartesian coordinates                     Fractional coordinates (reciprocal lattice)
     0.156629933 -0.090430334  0.000000000     0.500000000  0.000000000  0.000000000
     0.156629933  0.090430334  0.000000000     0.000000000  0.500000000  0.000000000
     0.000000000  0.000000000  0.074747946     0.000000000  0.000000000  1.000000000

  Length of vectors
     0.180860668  0.180860668  0.074747946

  Shift w.r.t. Gamma in fractional coordinates (k-lattice)
     0.500000000  0.500000000  0.000000000

 
 Subroutine IBZKPT returns following result:
 ===========================================
 
 Found      2 irreducible k-points:
 
 Following reciprocal coordinates:
            Coordinates               Weight
  0.250000  0.250000  0.000000      6.000000
 -0.250000  0.250000  0.000000      6.000000
 
 Following cartesian coordinates:
            Coordinates               Weight
  0.156630  0.000000  0.000000      6.000000
  0.000000  0.090430  0.000000      6.000000
 


--------------------------------------------------------------------------------------------------------




 Dimension of arrays:
   k-points           NKPTS =      2   k-points in BZ     NKDIM =      2   number of bands    NBANDS=     32
   number of dos      NEDOS =    301   number of ions     NIONS =      6
   non local maximal  LDIM  =      6   non local SUM 2l+1 LMDIM =     18
   total plane-waves  NPLWV =  56448
   max r-space proj   IRMAX =      1   max aug-charges    IRDMAX=  21106
   dimension x,y,z NGX =    24 NGY =   24 NGZ =   98
   dimension x,y,z NGXF=    48 NGYF=   48 NGZF=  196
   support grid    NGXF=    48 NGYF=   48 NGZF=  196
   ions per type =               2   4
   NGX,Y,Z   is equivalent  to a cutoff of  12.50, 12.50, 12.18 a.u.
   NGXF,Y,Z  is equivalent  to a cutoff of  25.00, 25.00, 24.36 a.u.

 SYSTEM =  MoS2_SinglePoint_vdW_Coulomb           
 POSCAR =  Mo S                                    

 Startparameter for this run:
   NWRITE =      1    write-flag & timer
   PREC   = accura    normal or accurate (medium, high low for compatibility)
   ISTART =      0    job   : 0-new  1-cont  2-samecut
   ICHARG =      2    charge: 1-file 2-atom 10-const
   ISPIN  =      1    spin polarized calculation?
   LNONCOLLINEAR =      F non collinear calculations
   LSORBIT =      F    spin-orbit coupling
   INIWAV =      1    electr: 0-lowe 1-rand  2-diag
   LASPH  =      F    aspherical Exc in radial PAW
   METAGGA=      F    non-selfconsistent MetaGGA calc.

 Electronic Relaxation 1
   ENCUT  =  500.0 eV  36.75 Ry    6.06 a.u.   5.82  5.82 24.39*2*pi/ulx,y,z
   ENINI  =  500.0     initial cutoff
   ENAUG  =  446.0 eV  augmentation charge cutoff
   NELM   =    100;   NELMIN=  5; NELMDL= -5     # of ELM steps 
   EDIFF  = 0.1E-05   stopping-criterion for ELM
   LREAL  =      F    real-space projection
   NLSPLINE    = F    spline interpolate recip. space projectors
   LCOMPAT=      F    compatible to vasp.4.4
   GGA_COMPAT  = T    GGA compatible to vasp.4.4-vasp.4.6
   LMAXPAW     = -100 max onsite density
   LMAXMIX     =    2 max onsite mixed and CHGCAR
   VOSKOWN=      0    Vosko Wilk Nusair interpolation
   ROPT   =    0.00000   0.00000
 Ionic relaxation
   EDIFFG = 0.1E-04   stopping-criterion for IOM
   NSW    =      0    number of steps for IOM
   NBLOCK =      1;   KBLOCK =      1    inner block; outer block 
   IBRION =     -1    ionic relax: 0-MD 1-quasi-New 2-CG
   NFREE  =      0    steps in history (QN), initial steepest desc. (CG)
   ISIF   =      2    stress and relaxation
   IWAVPR =     10    prediction:  0-non 1-charg 2-wave 3-comb
   ISYM   =      2    0-nonsym 1-usesym 2-fastsym
   LCORR  =      T    Harris-Foulkes like correction to forces

   POTIM  = 0.5000    time-step for ionic-motion
   TEIN   =    0.0    initial temperature
   TEBEG  =    0.0;   TEEND  =   0.0 temperature during run
   SMASS  =  -3.00    Nose mass-parameter (am)
   estimated Nose-frequenzy (Omega)   =  0.10E-29 period in steps = 0.13E+47 mass=  -0.233E-27a.u.
   SCALEE = 1.0000    scale energy and forces
   NPACO  =    256;   APACO  = 16.0  distance and # of slots for P.C.
   PSTRESS=    0.0 pullay stress

  Mass of Ions in am
   POMASS =  95.94 32.07
  Ionic Valenz
   ZVAL   =  14.00  6.00
  Atomic Wigner-Seitz radii
   RWIGS  =  -1.00 -1.00
  virtual crystal weights 
   VCA    =   1.00  1.00
   NELECT =      52.0000    total number of electrons
   NUPDOWN=      -1.0000    fix difference up-down

 DOS related values:
   EMIN   =  10.00;   EMAX   =-10.00  energy-range for DOS
   EFERMI =   0.00
   ISMEAR =     0;   SIGMA  =   0.05  broadening in eV -4-tet -1-fermi 0-gaus

 Electronic relaxation 2 (details)
   IALGO  =     38    algorithm
   LDIAG  =      T    sub-space diagonalisation (order eigenvalues)
   LSUBROT=      F    optimize rotation matrix (better conditioning)
   TURBO    =      0    0=normal 1=particle mesh
   IRESTART =      0    0=no restart 2=restart with 2 vectors
   NREBOOT  =      0    no. of reboots
   NMIN     =      0    reboot dimension
   EREF     =   0.00    reference energy to select bands
   IMIX   =      4    mixing-type and parameters
     AMIX     =   0.40;   BMIX     =  1.00
     AMIX_MAG =   1.60;   BMIX_MAG =  1.00
     AMIN     =   0.10
     WC   =   100.;   INIMIX=   1;  MIXPRE=   1;  MAXMIX= -45

 Intra band minimization:
   WEIMIN = 0.0000     energy-eigenvalue tresh-hold
   EBREAK =  0.78E-08  absolut break condition
   DEPER  =   0.30     relativ break condition  

   TIME   =   0.40     timestep for ELM

  volume/ion in A,a.u.               =      19.68       132.79
  Fermi-wavevector in a.u.,A,eV,Ry     =   1.245571  2.353789 21.108736  1.551448
  Thomas-Fermi vector in A             =   2.379788
 
 Write flags
   LWAVE        =      T    write WAVECAR
   LDOWNSAMPLE  =      F    k-point downsampling of WAVECAR
   LCHARG       =      T    write CHGCAR
   LVTOT        =      F    write LOCPOT, total local potential
   LVHAR        =      F    write LOCPOT, Hartree potential only
   LELF         =      F    write electronic localiz. function (ELF)
   LORBIT       =      0    0 simple, 1 ext, 2 COOP (PROOUT), +10 PAW based schemes


 Dipole corrections
   LMONO  =      F    monopole corrections only (constant potential shift)
   LDIPOL =      F    correct potential (dipole corrections)
   IDIPOL =      0    1-x, 2-y, 3-z, 4-all directions 
   EPSILON=  1.0000000 bulk dielectric constant

 Exchange correlation treatment:
   GGA     =    PE    GGA type
   LEXCH   =     8    internal setting for exchange type
   VOSKOWN=      0    Vosko Wilk Nusair interpolation
   LHFCALC =     F    Hartree Fock is set to
   LHFONE  =     F    Hartree Fock one center treatment
   AEXX    =    0.0000 exact exchange contribution

 Linear response parameters
   LEPSILON=     F    determine dielectric tensor
   LRPA    =     F    only Hartree local field effects (RPA)
   LNABLA  =     F    use nabla operator in PAW spheres
   LVEL    =     F    velocity operator in full k-point grid
   LINTERFAST=   F  fast interpolation
   KINTER  =     0    interpolate to denser k-point grid
   CSHIFT  =0.1000    complex shift for real part using Kramers Kronig
   OMEGAMAX=  -1.0    maximum frequency
   DEG_THRESHOLD= 0.2000000E-02 threshold for treating states as degnerate
   RTIME   =   -0.100 relaxation time in fs
  (WPLASMAI=    0.000 imaginary part of plasma frequency in eV, 0.658/RTIME)
   DFIELD  = 0.0000000 0.0000000 0.0000000 field for delta impulse in time
 
 Orbital magnetization related:
   ORBITALMAG=     F  switch on orbital magnetization
   LCHIMAG   =     F  perturbation theory with respect to B field
   DQ        =  0.001000  dq finite difference perturbation B field
   LLRAUG    =     F  two centre corrections for induced B field



--------------------------------------------------------------------------------------------------------


 Static calculation
 charge density and potential will be updated during run
 non-spin polarized calculation
 Variant of blocked Davidson
 Davidson routine will perform the subspace rotation
 perform sub-space diagonalisation
    after iterative eigenvector-optimisation
 modified Broyden-mixing scheme, WC =      100.0
 initial mixing is a Kerker type mixing with AMIX =  0.4000 and BMIX =      1.0000
 Hartree-type preconditioning will be used
 using additional bands            6
 reciprocal scheme for non local part
 use partial core corrections
 calculate Harris-corrections to forces 
   (improved forces if not selfconsistent)
 use gradient corrections 
 use of overlap-Matrix (Vanderbilt PP)
 Gauss-broadening in eV      SIGMA  =   0.05


--------------------------------------------------------------------------------------------------------


  energy-cutoff  :      500.00
  volume of cell :      118.07
      direct lattice vectors                 reciprocal lattice vectors
     1.596118927 -2.764559076  0.000000000     0.313259865 -0.180860668  0.000000000
     1.596118927  2.764559076  0.000000000     0.313259865  0.180860668  0.000000000
     0.000000000  0.000000000 13.378293991     0.000000000  0.000000000  0.074747946

  length of vectors
     3.192237854  3.192237854 13.378293991     0.361721335  0.361721335  0.074747946


 
 k-points in units of 2pi/SCALE and weight: K-Spacing Value to Generate K-Mesh: 0.15
   0.15662993  0.00000000  0.00000000       0.500
   0.00000000  0.09043033  0.00000000       0.500
 
 k-points in reciprocal lattice and weights: K-Spacing Value to Generate K-Mesh: 0.15
   0.25000000  0.25000000  0.00000000       0.500
  -0.25000000  0.25000000  0.00000000       0.500
 
 position of ions in fractional coordinates (direct lattice) 
   0.66666667  0.33333333  0.25000000
   0.33333333  0.66666667  0.75000000
   0.66666667  0.33333333  0.63308200
   0.33333333  0.66666667  0.36691800
   0.66666667  0.33333333  0.86691800
   0.33333333  0.66666667  0.13308200
 
 position of ions in cartesian coordinates  (Angst):
   1.59611893 -0.92151969  3.34457350
   1.59611893  0.92151969 10.03372049
   1.59611893 -0.92151969  8.46955712
   1.59611893  0.92151969  4.90873687
   1.59611893 -0.92151969 11.59788387
   1.59611893  0.92151969  1.78041012
 


--------------------------------------------------------------------------------------------------------


 k-point   1 :   0.2500 0.2500 0.0000  plane waves:    3020
 k-point   2 :  -0.2500 0.2500 0.0000  plane waves:    2992

 maximum and minimum number of plane-waves per node :       768      742

 maximum number of plane-waves:      3020
 maximum index in each direction: 
   IXMAX=    6   IYMAX=    5   IZMAX=   24
   IXMIN=   -6   IYMIN=   -6   IZMIN=  -24


 parallel 3D FFT for wavefunctions:
    minimum data exchange during FFTs selected (reduces bandwidth)
 parallel 3D FFT for charge:
    minimum data exchange during FFTs selected (reduces bandwidth)


 total amount of memory used by VASP MPI-rank0    37007. kBytes
=======================================================================

   base      :      30000. kBytes
   nonl-proj :        502. kBytes
   fftplans  :       2328. kBytes
   grid      :       3750. kBytes
   one-center:         31. kBytes
   wavefun   :        396. kBytes
 
     INWAV:  cpu time    0.0000: real time    0.0001
 Broyden mixing: mesh for mixing (old mesh)
   NGX = 11   NGY = 11   NGZ = 49
  (NGX  = 48   NGY  = 48   NGZ  =196)
  gives a total of   5929 points

 initial charge density was supplied:
 charge density of overlapping atoms calculated
 number of electron      52.0000000 magnetization 
 keeping initial charge density in first step


--------------------------------------------------------------------------------------------------------


 Maximum index for augmentation-charges         2591 (set IRDMAX)


--------------------------------------------------------------------------------------------------------


 First call to EWALD:  gamma=   0.361
 Maximum number of real-space cells 4x 4x 1
 Maximum number of reciprocal cells 2x 2x 7

    FEWALD:  cpu time    0.0019: real time    0.0019


--------------------------------------- Iteration      1(   1)  ---------------------------------------


    POTLOK:  cpu time    0.0580: real time    0.0592
    SETDIJ:  cpu time    0.0056: real time    0.0056
     EDDAV:  cpu time    0.1339: real time    0.1340
       DOS:  cpu time    0.0003: real time    0.0003
    --------------------------------------------
      LOOP:  cpu time    0.1978: real time    0.1990

 eigenvalue-minimisations  :   144
 total energy-change (2. order) : 0.4383147E+03  (-0.2907152E+04)
 number of electron      52.0000000 magnetization 
 augmentation part       52.0000000 magnetization 

 Free energy of the ion-electron system (eV)
  ---------------------------------------------------
  alpha Z        PSCENC =       160.27286088
  Ewald energy   TEWEN  =     -2844.14952381
  -Hartree energ DENC   =     -1900.42788715
  -exchange      EXHF   =         0.00000000
  -V(xc)+E(xc)   XCENC  =       182.74489155
  PAW double counting   =      3865.57804258    -3815.84821480
  entropy T*S    EENTRO =        -0.00009139
  eigenvalues    EBANDS =       -41.69804489
  atomic energy  EATOM  =      4831.84262874
  Solvation  Ediel_sol  =         0.00000000
  ---------------------------------------------------
  free energy    TOTEN  =       438.31466171 eV

  energy without entropy =      438.31475310  energy(sigma->0) =      438.31470740


--------------------------------------------------------------------------------------------------------




--------------------------------------- Iteration      1(   2)  ---------------------------------------


     EDDAV:  cpu time    0.1457: real time    0.1484
       DOS:  cpu time    0.0002: real time    0.0002
    --------------------------------------------
      LOOP:  cpu time    0.1458: real time    0.1486

 eigenvalue-minimisations  :   168
 total energy-change (2. order) :-0.4646316E+03  (-0.4518730E+03)
 number of electron      52.0000000 magnetization 
 augmentation part       52.0000000 magnetization 

 Free energy of the ion-electron system (eV)
  ---------------------------------------------------
  alpha Z        PSCENC =       160.27286088
  Ewald energy   TEWEN  =     -2844.14952381
  -Hartree energ DENC   =     -1900.42788715
  -exchange      EXHF   =         0.00000000
  -V(xc)+E(xc)   XCENC  =       182.74489155
  PAW double counting   =      3865.57804258    -3815.84821480
  entropy T*S    EENTRO =        -0.00000000
  eigenvalues    EBANDS =      -506.32972531
  atomic energy  EATOM  =      4831.84262874
  Solvation  Ediel_sol  =         0.00000000
  ---------------------------------------------------
  free energy    TOTEN  =       -26.31692732 eV

  energy without entropy =      -26.31692732  energy(sigma->0) =      -26.31692732


--------------------------------------------------------------------------------------------------------




--------------------------------------- Iteration      1(   3)  ---------------------------------------


     EDDAV:  cpu time    0.1451: real time    0.1484
       DOS:  cpu time    0.0002: real time    0.0001
    --------------------------------------------
      LOOP:  cpu time    0.1453: real time    0.1485

 eigenvalue-minimisations  :   168
 total energy-change (2. order) :-0.2068933E+02  (-0.2054389E+02)
 number of electron      52.0000000 magnetization 
 augmentation part       52.0000000 magnetization 

 Free energy of the ion-electron system (eV)
  ---------------------------------------------------
  alpha Z        PSCENC =       160.27286088
  Ewald energy   TEWEN  =     -2844.14952381
  -Hartree energ DENC   =     -1900.42788715
  -exchange      EXHF   =         0.00000000
  -V(xc)+E(xc)   XCENC  =       182.74489155
  PAW double counting   =      3865.57804258    -3815.84821480
  entropy T*S    EENTRO =        -0.00000000
  eigenvalues    EBANDS =      -527.01905069
  atomic energy  EATOM  =      4831.84262874
  Solvation  Ediel_sol  =         0.00000000
  ---------------------------------------------------
  free energy    TOTEN  =       -47.00625270 eV

  energy without entropy =      -47.00625270  energy(sigma->0) =      -47.00625270


--------------------------------------------------------------------------------------------------------




--------------------------------------- Iteration      1(   4)  ---------------------------------------


     EDDAV:  cpu time    0.1401: real time    0.1443
       DOS:  cpu time    0.0002: real time    0.0002
    --------------------------------------------
      LOOP:  cpu time    0.1402: real time    0.1445

 eigenvalue-minimisations  :   160
 total energy-change (2. order) :-0.3127034E+00  (-0.3116541E+00)
 number of electron      52.0000000 magnetization 
 augmentation part       52.0000000 magnetization 

 Free energy of the ion-electron system (eV)
  ---------------------------------------------------
  alpha Z        PSCENC =       160.27286088
  Ewald energy   TEWEN  =     -2844.14952381
  -Hartree energ DENC   =     -1900.42788715
  -exchange      EXHF   =         0.00000000
  -V(xc)+E(xc)   XCENC  =       182.74489155
  PAW double counting   =      3865.57804258    -3815.84821480
  entropy T*S    EENTRO =        -0.00000000
  eigenvalues    EBANDS =      -527.33175409
  atomic energy  EATOM  =      4831.84262874
  Solvation  Ediel_sol  =         0.00000000
  ---------------------------------------------------
  free energy    TOTEN  =       -47.31895610 eV

  energy without entropy =      -47.31895610  energy(sigma->0) =      -47.31895610


--------------------------------------------------------------------------------------------------------




--------------------------------------- Iteration      1(   5)  ---------------------------------------


     EDDAV:  cpu time    0.1447: real time    0.1491
       DOS:  cpu time    0.0001: real time    0.0001
    CHARGE:  cpu time    0.0238: real time    0.0238
    MIXING:  cpu time    0.0014: real time    0.0014
    --------------------------------------------
      LOOP:  cpu time    0.1701: real time    0.1745

 eigenvalue-minimisations  :   168
 total energy-change (2. order) :-0.8648776E-02  (-0.8646348E-02)
 number of electron      51.9999991 magnetization 
 augmentation part        0.7147354 magnetization 

 Broyden mixing:
  rms(total) = 0.32822E+01    rms(broyden)= 0.32822E+01
  rms(prec ) = 0.33790E+01
  weight for this iteration     100.00

 Free energy of the ion-electron system (eV)
  ---------------------------------------------------
  alpha Z        PSCENC =       160.27286088
  Ewald energy   TEWEN  =     -2844.14952381
  -Hartree energ DENC   =     -1900.42788715
  -exchange      EXHF   =         0.00000000
  -V(xc)+E(xc)   XCENC  =       182.74489155
  PAW double counting   =      3865.57804258    -3815.84821480
  entropy T*S    EENTRO =        -0.00000000
  eigenvalues    EBANDS =      -527.34040287
  atomic energy  EATOM  =      4831.84262874
  Solvation  Ediel_sol  =         0.00000000
  ---------------------------------------------------
  free energy    TOTEN  =       -47.32760487 eV

  energy without entropy =      -47.32760487  energy(sigma->0) =      -47.32760487


--------------------------------------------------------------------------------------------------------




--------------------------------------- Iteration      1(   6)  ---------------------------------------


    POTLOK:  cpu time    0.0550: real time    0.0586
    SETDIJ:  cpu time    0.0054: real time    0.0054
     EDDAV:  cpu time    0.1180: real time    0.1180
       DOS:  cpu time    0.0001: real time    0.0001
    CHARGE:  cpu time    0.0235: real time    0.0235
    MIXING:  cpu time    0.0014: real time    0.0014
    --------------------------------------------
      LOOP:  cpu time    0.2035: real time    0.2071

 eigenvalue-minimisations  :   128
 total energy-change (2. order) : 0.2219066E+01  (-0.2040209E+01)
 number of electron      51.9999990 magnetization 
 augmentation part        1.9361616 magnetization 

 Broyden mixing:
  rms(total) = 0.12656E+01    rms(broyden)= 0.12655E+01
  rms(prec ) = 0.13666E+01
  weight for this iteration     100.00

 eigenvalues of (default mixing * dielectric matrix)
  average eigenvalue GAMMA=   1.0838
  1.0838

 Free energy of the ion-electron system (eV)
  ---------------------------------------------------
  alpha Z        PSCENC =       160.27286088
  Ewald energy   TEWEN  =     -2844.14952381
  -Hartree energ DENC   =     -1842.41327008
  -exchange      EXHF   =         0.00000000
  -V(xc)+E(xc)   XCENC  =       181.12013849
  PAW double counting   =      4555.34122019    -4512.44301206
  entropy T*S    EENTRO =        -0.00000000
  eigenvalues    EBANDS =      -574.67958145
  atomic energy  EATOM  =      4831.84262874
  Solvation  Ediel_sol  =         0.00000000
  ---------------------------------------------------
  free energy    TOTEN  =       -45.10853910 eV

  energy without entropy =      -45.10853910  energy(sigma->0) =      -45.10853910


--------------------------------------------------------------------------------------------------------




--------------------------------------- Iteration      1(   7)  ---------------------------------------


    POTLOK:  cpu time    0.0568: real time    0.0608
    SETDIJ:  cpu time    0.0054: real time    0.0054
     EDDAV:  cpu time    0.1177: real time    0.1177
       DOS:  cpu time    0.0002: real time    0.0002
    CHARGE:  cpu time    0.0235: real time    0.0235
    MIXING:  cpu time    0.0014: real time    0.0014
    --------------------------------------------
      LOOP:  cpu time    0.2049: real time    0.2089

 eigenvalue-minimisations  :   128
 total energy-change (2. order) : 0.4915123E+00  (-0.7498432E+00)
 number of electron      51.9999991 magnetization 
 augmentation part        1.3040255 magnetization 

 Broyden mixing:
  rms(total) = 0.76253E+00    rms(broyden)= 0.76253E+00
  rms(prec ) = 0.81701E+00
  weight for this iteration     100.00

 eigenvalues of (default mixing * dielectric matrix)
  average eigenvalue GAMMA=   1.2055
  1.7619  0.6491

 Free energy of the ion-electron system (eV)
  ---------------------------------------------------
  alpha Z        PSCENC =       160.27286088
  Ewald energy   TEWEN  =     -2844.14952381
  -Hartree energ DENC   =     -1880.03191267
  -exchange      EXHF   =         0.00000000
  -V(xc)+E(xc)   XCENC  =       181.74171626
  PAW double counting   =      5117.73170999    -5073.39077839
  entropy T*S    EENTRO =        -0.00000000
  eigenvalues    EBANDS =      -538.63372775
  atomic energy  EATOM  =      4831.84262874
  Solvation  Ediel_sol  =         0.00000000
  ---------------------------------------------------
  free energy    TOTEN  =       -44.61702676 eV

  energy without entropy =      -44.61702676  energy(sigma->0) =      -44.61702676


--------------------------------------------------------------------------------------------------------




--------------------------------------- Iteration      1(   8)  ---------------------------------------


    POTLOK:  cpu time    0.0551: real time    0.0589
    SETDIJ:  cpu time    0.0054: real time    0.0054
     EDDAV:  cpu time    0.1449: real time    0.1450
       DOS:  cpu time    0.0002: real time    0.0002
    CHARGE:  cpu time    0.0237: real time    0.0238
    MIXING:  cpu time    0.0015: real time    0.0015
    --------------------------------------------
      LOOP:  cpu time    0.2308: real time    0.2346

 eigenvalue-minimisations  :   160
 total energy-change (2. order) : 0.2937278E+00  (-0.1220779E+00)
 number of electron      51.9999990 magnetization 
 augmentation part        1.5374273 magnetization 

 Broyden mixing:
  rms(total) = 0.26471E+00    rms(broyden)= 0.26471E+00
  rms(prec ) = 0.26746E+00
  weight for this iteration     100.00

 eigenvalues of (default mixing * dielectric matrix)
  average eigenvalue GAMMA=   1.2946
  2.3654  0.9166  0.6019

 Free energy of the ion-electron system (eV)
  ---------------------------------------------------
  alpha Z        PSCENC =       160.27286088
  Ewald energy   TEWEN  =     -2844.14952381
  -Hartree energ DENC   =     -1864.46515255
  -exchange      EXHF   =         0.00000000
  -V(xc)+E(xc)   XCENC  =       181.36054373
  PAW double counting   =      5589.75158431    -5547.55328015
  entropy T*S    EENTRO =        -0.00000000
  eigenvalues    EBANDS =      -551.38296012
  atomic energy  EATOM  =      4831.84262874
  Solvation  Ediel_sol  =         0.00000000
  ---------------------------------------------------
  free energy    TOTEN  =       -44.32329897 eV

  energy without entropy =      -44.32329897  energy(sigma->0) =      -44.32329897


--------------------------------------------------------------------------------------------------------




--------------------------------------- Iteration      1(   9)  ---------------------------------------


    POTLOK:  cpu time    0.0564: real time    0.0580
    SETDIJ:  cpu time    0.0054: real time    0.0054
     EDDAV:  cpu time    0.1450: real time    0.1452
       DOS:  cpu time    0.0002: real time    0.0002
    CHARGE:  cpu time    0.0235: real time    0.0235
    MIXING:  cpu time    0.0015: real time    0.0015
    --------------------------------------------
      LOOP:  cpu time    0.2320: real time    0.2338

 eigenvalue-minimisations  :   168
 total energy-change (2. order) :-0.8069398E-02  (-0.1143634E-01)
 number of electron      51.9999990 magnetization 
 augmentation part        1.6033999 magnetization 

 Broyden mixing:
  rms(total) = 0.11525E+00    rms(broyden)= 0.11525E+00
  rms(prec ) = 0.12520E+00
  weight for this iteration     100.00

 eigenvalues of (default mixing * dielectric matrix)
  average eigenvalue GAMMA=   1.3179
  2.1562  1.6673  0.6911  0.7570

 Free energy of the ion-electron system (eV)
  ---------------------------------------------------
  alpha Z        PSCENC =       160.27286088
  Ewald energy   TEWEN  =     -2844.14952381
  -Hartree energ DENC   =     -1863.31945285
  -exchange      EXHF   =         0.00000000
  -V(xc)+E(xc)   XCENC  =       181.34638517
  PAW double counting   =      5842.17480130    -5800.54186699
  entropy T*S    EENTRO =        -0.00000000
  eigenvalues    EBANDS =      -551.95720081
  atomic energy  EATOM  =      4831.84262874
  Solvation  Ediel_sol  =         0.00000000
  ---------------------------------------------------
  free energy    TOTEN  =       -44.33136837 eV

  energy without entropy =      -44.33136837  energy(sigma->0) =      -44.33136837


--------------------------------------------------------------------------------------------------------




--------------------------------------- Iteration      1(  10)  ---------------------------------------


    POTLOK:  cpu time    0.0551: real time    0.0584
    SETDIJ:  cpu time    0.0054: real time    0.0054
     EDDAV:  cpu time    0.1445: real time    0.1445
       DOS:  cpu time    0.0002: real time    0.0002
    CHARGE:  cpu time    0.0235: real time    0.0235
    MIXING:  cpu time    0.0015: real time    0.0015
    --------------------------------------------
      LOOP:  cpu time    0.2301: real time    0.2335

 eigenvalue-minimisations  :   168
 total energy-change (2. order) : 0.6888635E-02  (-0.4652548E-02)
 number of electron      51.9999990 magnetization 
 augmentation part        1.5450028 magnetization 

 Broyden mixing:
  rms(total) = 0.35867E-01    rms(broyden)= 0.35867E-01
  rms(prec ) = 0.37656E-01
  weight for this iteration     100.00

 eigenvalues of (default mixing * dielectric matrix)
  average eigenvalue GAMMA=   1.2737
  2.3153  1.9302  0.8765  0.6231  0.6231

 Free energy of the ion-electron system (eV)
  ---------------------------------------------------
  alpha Z        PSCENC =       160.27286088
  Ewald energy   TEWEN  =     -2844.14952381
  -Hartree energ DENC   =     -1866.67088434
  -exchange      EXHF   =         0.00000000
  -V(xc)+E(xc)   XCENC  =       181.46286593
  PAW double counting   =      5822.41557697    -5780.46450576
  entropy T*S    EENTRO =        -0.00000000
  eigenvalues    EBANDS =      -549.03349835
  atomic energy  EATOM  =      4831.84262874
  Solvation  Ediel_sol  =         0.00000000
  ---------------------------------------------------
  free energy    TOTEN  =       -44.32447974 eV

  energy without entropy =      -44.32447974  energy(sigma->0) =      -44.32447974


--------------------------------------------------------------------------------------------------------




--------------------------------------- Iteration      1(  11)  ---------------------------------------


    POTLOK:  cpu time    0.0550: real time    0.0589
    SETDIJ:  cpu time    0.0054: real time    0.0054
     EDDAV:  cpu time    0.1415: real time    0.1415
       DOS:  cpu time    0.0002: real time    0.0002
    CHARGE:  cpu time    0.0234: real time    0.0234
    MIXING:  cpu time    0.0015: real time    0.0015
    --------------------------------------------
      LOOP:  cpu time    0.2270: real time    0.2309

 eigenvalue-minimisations  :   160
 total energy-change (2. order) :-0.9731646E-04  (-0.1567077E-03)
 number of electron      51.9999990 magnetization 
 augmentation part        1.5475586 magnetization 

 Broyden mixing:
  rms(total) = 0.19895E-01    rms(broyden)= 0.19895E-01
  rms(prec ) = 0.21096E-01
  weight for this iteration     100.00

 eigenvalues of (default mixing * dielectric matrix)
  average eigenvalue GAMMA=   1.3427
  2.4247  2.1937  1.2996  0.7261  0.7261  0.6861

 Free energy of the ion-electron system (eV)
  ---------------------------------------------------
  alpha Z        PSCENC =       160.27286088
  Ewald energy   TEWEN  =     -2844.14952381
  -Hartree energ DENC   =     -1866.75478188
  -exchange      EXHF   =         0.00000000
  -V(xc)+E(xc)   XCENC  =       181.47523338
  PAW double counting   =      5838.56047649    -5796.62651254
  entropy T*S    EENTRO =        -0.00000000
  eigenvalues    EBANDS =      -548.94495830
  atomic energy  EATOM  =      4831.84262874
  Solvation  Ediel_sol  =         0.00000000
  ---------------------------------------------------
  free energy    TOTEN  =       -44.32457705 eV

  energy without entropy =      -44.32457705  energy(sigma->0) =      -44.32457705


--------------------------------------------------------------------------------------------------------




--------------------------------------- Iteration      1(  12)  ---------------------------------------


    POTLOK:  cpu time    0.0550: real time    0.0585
    SETDIJ:  cpu time    0.0054: real time    0.0054
     EDDAV:  cpu time    0.1448: real time    0.1449
       DOS:  cpu time    0.0002: real time    0.0002
    CHARGE:  cpu time    0.0235: real time    0.0235
    MIXING:  cpu time    0.0016: real time    0.0016
    --------------------------------------------
      LOOP:  cpu time    0.2304: real time    0.2339

 eigenvalue-minimisations  :   168
 total energy-change (2. order) : 0.6156281E-04  (-0.1123464E-03)
 number of electron      51.9999990 magnetization 
 augmentation part        1.5556301 magnetization 

 Broyden mixing:
  rms(total) = 0.20284E-02    rms(broyden)= 0.20283E-02
  rms(prec ) = 0.26806E-02
  weight for this iteration     100.00

 eigenvalues of (default mixing * dielectric matrix)
  average eigenvalue GAMMA=   1.3905
  2.7805  2.2061  1.6405  0.9741  0.6894  0.7216  0.7216

 Free energy of the ion-electron system (eV)
  ---------------------------------------------------
  alpha Z        PSCENC =       160.27286088
  Ewald energy   TEWEN  =     -2844.14952381
  -Hartree energ DENC   =     -1866.73023489
  -exchange      EXHF   =         0.00000000
  -V(xc)+E(xc)   XCENC  =       181.47470279
  PAW double counting   =      5838.76984844    -5796.85802468
  entropy T*S    EENTRO =        -0.00000000
  eigenvalues    EBANDS =      -548.94677296
  atomic energy  EATOM  =      4831.84262874
  Solvation  Ediel_sol  =         0.00000000
  ---------------------------------------------------
  free energy    TOTEN  =       -44.32451549 eV

  energy without entropy =      -44.32451549  energy(sigma->0) =      -44.32451549


--------------------------------------------------------------------------------------------------------




--------------------------------------- Iteration      1(  13)  ---------------------------------------


    POTLOK:  cpu time    0.0549: real time    0.0586
    SETDIJ:  cpu time    0.0054: real time    0.0054
     EDDAV:  cpu time    0.1285: real time    0.1286
       DOS:  cpu time    0.0002: real time    0.0002
    CHARGE:  cpu time    0.0235: real time    0.0235
    MIXING:  cpu time    0.0016: real time    0.0016
    --------------------------------------------
      LOOP:  cpu time    0.2141: real time    0.2178

 eigenvalue-minimisations  :   144
 total energy-change (2. order) :-0.3436184E-04  (-0.8786033E-05)
 number of electron      51.9999990 magnetization 
 augmentation part        1.5563106 magnetization 

 Broyden mixing:
  rms(total) = 0.26830E-02    rms(broyden)= 0.26830E-02
  rms(prec ) = 0.28526E-02
  weight for this iteration     100.00

 eigenvalues of (default mixing * dielectric matrix)
  average eigenvalue GAMMA=   1.4668
  2.8125  2.2178  1.7716  1.7716  0.9999  0.7273  0.7273  0.7066

 Free energy of the ion-electron system (eV)
  ---------------------------------------------------
  alpha Z        PSCENC =       160.27286088
  Ewald energy   TEWEN  =     -2844.14952381
  -Hartree energ DENC   =     -1866.84472063
  -exchange      EXHF   =         0.00000000
  -V(xc)+E(xc)   XCENC  =       181.47740238
  PAW double counting   =      5838.72851192    -5796.81489018
  entropy T*S    EENTRO =        -0.00000000
  eigenvalues    EBANDS =      -548.83681914
  atomic energy  EATOM  =      4831.84262874
  Solvation  Ediel_sol  =         0.00000000
  ---------------------------------------------------
  free energy    TOTEN  =       -44.32454985 eV

  energy without entropy =      -44.32454985  energy(sigma->0) =      -44.32454985


--------------------------------------------------------------------------------------------------------




--------------------------------------- Iteration      1(  14)  ---------------------------------------


    POTLOK:  cpu time    0.0550: real time    0.0581
    SETDIJ:  cpu time    0.0054: real time    0.0054
     EDDAV:  cpu time    0.1391: real time    0.1391
       DOS:  cpu time    0.0002: real time    0.0002
    CHARGE:  cpu time    0.0234: real time    0.0234
    MIXING:  cpu time    0.0017: real time    0.0017
    --------------------------------------------
      LOOP:  cpu time    0.2248: real time    0.2279

 eigenvalue-minimisations  :   160
 total energy-change (2. order) :-0.3917333E-05  (-0.2651813E-05)
 number of electron      51.9999990 magnetization 
 augmentation part        1.5551721 magnetization 

 Broyden mixing:
  rms(total) = 0.42567E-03    rms(broyden)= 0.42566E-03
  rms(prec ) = 0.48180E-03
  weight for this iteration     100.00

 eigenvalues of (default mixing * dielectric matrix)
  average eigenvalue GAMMA=   1.4931
  3.0506  2.5515  2.0032  1.6653  1.0475  0.9530  0.7276  0.7276  0.7118

 Free energy of the ion-electron system (eV)
  ---------------------------------------------------
  alpha Z        PSCENC =       160.27286088
  Ewald energy   TEWEN  =     -2844.14952381
  -Hartree energ DENC   =     -1866.90133277
  -exchange      EXHF   =         0.00000000
  -V(xc)+E(xc)   XCENC  =       181.47961889
  PAW double counting   =      5838.51566883    -5796.59531869
  entropy T*S    EENTRO =        -0.00000000
  eigenvalues    EBANDS =      -548.78915582
  atomic energy  EATOM  =      4831.84262874
  Solvation  Ediel_sol  =         0.00000000
  ---------------------------------------------------
  free energy    TOTEN  =       -44.32455377 eV

  energy without entropy =      -44.32455377  energy(sigma->0) =      -44.32455377


--------------------------------------------------------------------------------------------------------




--------------------------------------- Iteration      1(  15)  ---------------------------------------


    POTLOK:  cpu time    0.0549: real time    0.0583
    SETDIJ:  cpu time    0.0054: real time    0.0054
     EDDAV:  cpu time    0.1145: real time    0.1145
       DOS:  cpu time    0.0002: real time    0.0001
    --------------------------------------------
      LOOP:  cpu time    0.1749: real time    0.1784

 eigenvalue-minimisations  :   120
 total energy-change (2. order) :-0.5759503E-06  (-0.1357609E-06)
 number of electron      51.9999990 magnetization 
 augmentation part        1.5551721 magnetization 

 Free energy of the ion-electron system (eV)
  ---------------------------------------------------
  alpha Z        PSCENC =       160.27286088
  Ewald energy   TEWEN  =     -2844.14952381
  -Hartree energ DENC   =     -1866.90503560
  -exchange      EXHF   =         0.00000000
  -V(xc)+E(xc)   XCENC  =       181.47994239
  PAW double counting   =      5838.34151848    -5796.42081001
  entropy T*S    EENTRO =        -0.00000000
  eigenvalues    EBANDS =      -548.78613541
  atomic energy  EATOM  =      4831.84262874
  Solvation  Ediel_sol  =         0.00000000
  ---------------------------------------------------
  free energy    TOTEN  =       -44.32455435 eV

  energy without entropy =      -44.32455435  energy(sigma->0) =      -44.32455435


--------------------------------------------------------------------------------------------------------




 average (electrostatic) potential at core
  the test charge radii are     1.0818  0.9698
  (the norm of the test charge is              1.0000)
       1 -75.9500       2 -75.9500       3 -85.6512       4 -85.6512       5 -85.6512
       6 -85.6512
 
 
 
 E-fermi :   5.6168     XC(G=0): -10.1519     alpha+bet :-12.2268

 Fermi energy:         5.6168293766

 k-point     1 :       0.2500    0.2500    0.0000
  band No.  band energies     occupation 
      1     -55.1585      2.00000
      2     -55.1585      2.00000
      3     -29.3953      2.00000
      4     -29.3953      2.00000
      5     -29.3071      2.00000
      6     -29.3071      2.00000
      7     -29.2544      2.00000
      8     -29.2544      2.00000
      9      -6.5991      2.00000
     10      -6.5542      2.00000
     11      -6.3709      2.00000
     12      -6.3223      2.00000
     13       0.5468      2.00000
     14       0.6528      2.00000
     15       0.7721      2.00000
     16       0.8218      2.00000
     17       2.0248      2.00000
     18       2.0678      2.00000
     19       2.2793      2.00000
     20       2.5909      2.00000
     21       2.7405      2.00000
     22       2.8393      2.00000
     23       3.9486      2.00000
     24       4.0648      2.00000
     25       5.1673      2.00000
     26       5.2018      2.00000
     27       7.6613      0.00000
     28       7.9556      0.00000
     29       8.4269      0.00000
     30       8.5289      0.00000
     31       8.5893      0.00000
     32       8.9656      0.00000

 k-point     2 :      -0.2500    0.2500    0.0000
  band No.  band energies     occupation 
      1     -55.1764      2.00000
      2     -55.1764      2.00000
      3     -29.3428      2.00000
      4     -29.3428      2.00000
      5     -29.2847      2.00000
      6     -29.2847      2.00000
      7     -29.1450      2.00000
      8     -29.1450      2.00000
      9      -7.6155      2.00000
     10      -7.5322      2.00000
     11      -6.8294      2.00000
     12      -6.7136      2.00000
     13       0.5233      2.00000
     14       0.8850      2.00000
     15       1.8201      2.00000
     16       1.9449      2.00000
     17       1.9556      2.00000
     18       2.2499      2.00000
     19       3.1840      2.00000
     20       3.2049      2.00000
     21       3.8923      2.00000
     22       3.9133      2.00000
     23       4.1086      2.00000
     24       4.5585      2.00000
     25       4.9190      2.00000
     26       5.0015      2.00000
     27       7.5949      0.00000
     28       7.9874      0.00000
     29       8.0594      0.00000
     30       8.1715      0.00000
     31       8.3851      0.00000
     32       8.7891      0.00000


--------------------------------------------------------------------------------------------------------


 soft charge-density along one line, spin component           1
         0         1         2         3         4         5         6         7         8         9
 total charge-density along one line
 
 pseudopotential strength for first ion, spin component:           1
 -5.011  11.453   0.000  -0.000   0.000  -0.000   0.000  -0.000
 11.453   3.261  -0.000   0.000  -0.000   0.000  -0.000   0.000
  0.000  -0.000 -18.130  -0.000   0.000   8.977   0.000  -0.000
 -0.000   0.000  -0.000 -18.142  -0.000   0.000   8.992   0.000
  0.000  -0.000   0.000  -0.000 -18.130  -0.000   0.000   8.977
 -0.000   0.000   8.977   0.000  -0.000   5.713  -0.000   0.000
  0.000  -0.000   0.000   8.992   0.000  -0.000   5.704  -0.000
 -0.000   0.000  -0.000   0.000   8.977   0.000  -0.000   5.713
  0.000  -0.000   0.000   0.000   0.008  -0.000  -0.000  -0.004
 -0.000   0.000   0.000   0.000   0.000  -0.000  -0.000  -0.000
 -0.008   0.005  -0.000  -0.000  -0.000   0.000   0.000   0.000
 -0.000   0.000   0.000   0.000  -0.000  -0.000  -0.000   0.000
 -0.000   0.000   0.008  -0.000  -0.000  -0.004   0.000   0.000
  0.000  -0.000   0.000   0.000   0.008  -0.000  -0.000  -0.004
 -0.000   0.000   0.000   0.000   0.000  -0.000  -0.000  -0.000
 -0.008   0.005  -0.000  -0.000  -0.000   0.000   0.000   0.000
 -0.000   0.000   0.000   0.000  -0.000  -0.000  -0.000   0.000
 -0.000   0.000   0.008  -0.000  -0.000  -0.004   0.000   0.000
 total augmentation occupancy for first ion, spin component:           1
  1.995  -0.042   0.000  -0.000   0.000  -0.000  -0.000   0.000  -0.000   0.000   0.016  -0.000   0.000   0.000   0.000  -0.015
 -0.042   1.245   0.000   0.000   0.000  -0.000   0.000   0.000  -0.000   0.000  -0.103  -0.000  -0.000   0.000   0.000   0.170
  0.000   0.000   1.998  -0.000   0.000  -0.043   0.000   0.000   0.000  -0.000   0.000  -0.000   0.008  -0.000   0.000   0.000
 -0.000   0.000  -0.000   1.998  -0.000  -0.000  -0.051   0.000   0.000   0.000  -0.000   0.000  -0.000   0.000   0.000   0.000
  0.000   0.000   0.000  -0.000   1.998   0.000   0.000  -0.043   0.008   0.000   0.000   0.000   0.000   0.002   0.000  -0.000
 -0.000  -0.000  -0.043  -0.000   0.000   0.091   0.000   0.000   0.000   0.000   0.000  -0.000   0.188   0.000  -0.000  -0.000
 -0.000   0.000   0.000  -0.051   0.000   0.000   0.124  -0.000   0.000   0.000  -0.000   0.000  -0.000  -0.000   0.000  -0.000
  0.000   0.000   0.000   0.000  -0.043   0.000  -0.000   0.091   0.188   0.000  -0.000   0.000  -0.000  -0.214   0.000   0.000
 -0.000  -0.000   0.000   0.000   0.008   0.000   0.000   0.188   2.395   0.000  -0.000   0.000   0.000  -2.725   0.000   0.000
  0.000   0.000   0.000   0.000   0.000   0.000   0.000  -0.000  -0.000   3.863  -0.000   0.000   0.000   0.000  -4.837  -0.000
  0.016  -0.103   0.000  -0.000  -0.000   0.000  -0.000   0.000   0.000  -0.000   1.549   0.000   0.000   0.000   0.000  -1.667
 -0.000  -0.000  -0.000   0.000   0.000   0.000   0.000   0.000  -0.000   0.000  -0.000   3.863   0.000  -0.000   0.000   0.000
  0.000  -0.000   0.008  -0.000   0.000   0.188  -0.000  -0.000   0.000  -0.000   0.000   0.000   2.395   0.000  -0.000  -0.000
  0.000   0.000  -0.000   0.000   0.002   0.000  -0.000  -0.214  -2.725   0.000  -0.000  -0.000   0.000   3.867   0.000   0.000
  0.000   0.000   0.000   0.000   0.000  -0.000   0.000   0.000  -0.000  -4.837   0.000   0.000  -0.000   0.000   6.419  -0.000
 -0.015   0.170   0.000   0.000  -0.000  -0.000  -0.000  -0.000   0.000   0.000  -1.667   0.000  -0.000   0.000  -0.000   2.642
  0.000  -0.000   0.000   0.000  -0.000   0.000   0.000   0.000  -0.000   0.000   0.000  -4.837   0.000   0.000   0.000  -0.000
 -0.000   0.000   0.002   0.000   0.000  -0.214  -0.000   0.000   0.000   0.000  -0.000  -0.000  -2.725   0.000  -0.000   0.000


------------------------ aborting loop because EDIFF is reached ----------------------------------------


    CHARGE:  cpu time    0.0257: real time    0.0257
    FORLOC:  cpu time    0.0047: real time    0.0047
    FORNL :  cpu time    0.0356: real time    0.0356
    STRESS:  cpu time    0.0885: real time    0.0885
    FORCOR:  cpu time    0.0589: real time    0.0589
    FORHAR:  cpu time    0.0146: real time    0.0146
    MIXING:  cpu time    0.0017: real time    0.0017
    OFIELD:  cpu time    0.0000: real time    0.0000

 ---------------------------------------------------------------------------------------------

         DFTD3 V3.0 Rev 1        
 IVDW         = 12
 DF pbe       
 parameters
 VDW_S6       =    1.0000
 VDW_S8       =    0.7875
 VDW_A1       =    0.4289
 VDW_A2       =    4.4407
 k1-k3        =   16.0000    1.3333   -4.0000
 VDW_RADIUS   =   50.2022 A
 VDW_CNRADIUS =   21.1671 A
 Edisp (eV)   -2.30990

 E6    (eV) :    -1.3757
 E8    (eV) :    -0.9342
 % E8        : 40.44
    FORVDW:  cpu time    0.0380: real time    0.0381

  FORCE on cell =-STRESS in cart. coord.  units (eV):
  Direction    XX          YY          ZZ          XY          YZ          ZX
  --------------------------------------------------------------------------------------
  Alpha Z   160.27286   160.27286   160.27286
  Ewald     -38.19155   -38.19156 -2767.76901    -0.00000     0.00000    -0.00000
  Hartree  1376.75681  1376.75681  -886.63626     0.00000     0.00000    -0.00000
  E(xc)    -219.12056  -219.12056  -219.50609     0.00000     0.00000     0.00000
  Local   -2346.79071 -2346.79067  2640.89054     0.00000     0.00000    -0.00000
  n-local   233.08530   243.57536   247.97278    -0.00000    -0.00000    -0.00000
  augment    -1.11453    -1.11457    -3.86922    -0.00000    -0.00000    -0.00000
  Kinetic   821.15298   836.52948   827.04518    -0.00000     0.00000    -0.00000
  Fock        0.00000     0.00000     0.00000     0.00000     0.00000     0.00000
  vdW        -2.38629    -2.38629    -2.18538     0.00000     0.00000     0.00000
  -------------------------------------------------------------------------------------
  Total      -3.40240    -3.40240    -3.78459     0.00000     0.00000     0.00000
  in kB     -46.17151   -46.17151   -51.35791     0.00000     0.00000     0.00000
  external pressure =      -47.90 kB  Pullay stress =        0.00 kB


 VOLUME and BASIS-vectors are now :
 -----------------------------------------------------------------------------
  energy-cutoff  :      500.00
  volume of cell :      118.07
      direct lattice vectors                 reciprocal lattice vectors
     1.596118927 -2.764559076  0.000000000     0.313259865 -0.180860668  0.000000000
     1.596118927  2.764559076  0.000000000     0.313259865  0.180860668  0.000000000
     0.000000000  0.000000000 13.378293991     0.000000000  0.000000000  0.074747946

  length of vectors
     3.192237854  3.192237854 13.378293991     0.361721335  0.361721335  0.074747946


 FORCES acting on ions
    electron-ion (+dipol)            ewald-force                    non-local-force                 convergence-correction
 -----------------------------------------------------------------------------------------------
   0.309E-12 0.387E-05 -.744E-08   -.450E-13 0.503E-06 -.227E-12   -.260E-17 -.347E-17 0.000E+00   0.991E-13 0.421E-09 -.281E-11
   0.279E-12 -.274E-05 -.745E-08   -.603E-14 -.503E-06 0.199E-12   0.000E+00 0.520E-17 0.827E-24   -.424E-13 -.321E-09 0.416E-12
   0.676E-07 0.909E-06 0.414E+03   -.439E-14 0.253E-06 -.419E+03   0.347E-16 0.000E+00 0.510E+01   0.421E-13 -.286E-08 0.192E-02
   -.676E-07 -.874E-06 -.414E+03   0.153E-13 -.253E-06 0.419E+03   -.139E-16 -.139E-16 -.510E+01   0.134E-13 0.285E-08 -.192E-02
   -.676E-07 0.114E-05 -.414E+03   -.465E-14 0.253E-06 0.419E+03   0.694E-17 0.555E-16 -.510E+01   -.106E-13 -.285E-08 -.192E-02
   0.676E-07 -.647E-06 0.414E+03   0.150E-13 -.253E-06 -.419E+03   -.208E-16 -.278E-16 0.510E+01   -.452E-13 0.286E-08 0.192E-02
 -----------------------------------------------------------------------------------------------
   0.679E-12 0.166E-05 -.267E-07   -.299E-13 0.634E-14 -.114E-12   0.434E-17 0.156E-16 0.178E-14   0.565E-13 0.103E-09 -.283E-11
 
 
 POSITION                                       TOTAL-FORCE (eV/Angst)
 -----------------------------------------------------------------------------------
      1.59612     -0.92152      3.34457         0.000000      0.000000      0.000000
      1.59612      0.92152     10.03372         0.000000     -0.000000      0.000000
      1.59612     -0.92152      8.46956        -0.000000      0.000000      0.314376
      1.59612      0.92152      4.90874        -0.000000     -0.000000     -0.314376
      1.59612     -0.92152     11.59788        -0.000000      0.000000     -0.314376
      1.59612      0.92152      1.78041        -0.000000     -0.000000      0.314376
 -----------------------------------------------------------------------------------
    total drift:                                0.000000      0.000002     -0.000000


--------------------------------------------------------------------------------------------------------



  FREE ENERGIE OF THE ION-ELECTRON SYSTEM (eV)
  ---------------------------------------------------
  free  energy   TOTEN  =       -46.63445909 eV

  energy  without entropy=      -46.63445909  energy(sigma->0) =      -46.63445909
 


--------------------------------------------------------------------------------------------------------


    POTLOK:  cpu time    0.0605: real time    0.0605


--------------------------------------------------------------------------------------------------------


 stress matrix after NEB project (eV)
     -3.40240     -0.00000      0.00000
      0.00000     -3.40240      0.00000
      0.00000      0.00000     -3.78459
  FORCES: max atom, RMS     0.314376    0.256687
  FORCE total and by dimension    0.628752    0.314376
  Stress total and by dimension    6.121744    3.784588
 writing wavefunctions
     LOOP+:  cpu time    4.1417: real time    4.2036
    4ORBIT:  cpu time    0.0000: real time    0.0000

 total amount of memory used by VASP MPI-rank0    37007. kBytes
=======================================================================

   base      :      30000. kBytes
   nonl-proj :        502. kBytes
   fftplans  :       2328. kBytes
   grid      :       3750. kBytes
   one-center:         31. kBytes
   wavefun   :        396. kBytes
 
  
  
 General timing and accounting informations for this job:
 ========================================================
  
                  Total CPU time used (sec):        5.770
                            User time (sec):        5.010
                          System time (sec):        0.760
                         Elapsed time (sec):        6.255
  
                   Maximum memory used (kb):      135088.
                   Average memory used (kb):          N/A
  
                          Minor page faults:        21768
                          Major page faults:            0
                 Voluntary context switches:          917
