 vasp.6.2.0 18Jan21 (build Jul 31 2023 14:19:35) complex                        
  
 executed on             LinuxIFC date 2025.09.17  12:22:47
 running on    8 total cores
 distrk:  each k-point on    8 cores,    1 groups
 distr:  one band on NCORE=   4 cores,    2 groups


--------------------------------------------------------------------------------------------------------


 INCAR:
   SYSTEM = MoS2_SinglePoint_vdW_Coulomb
   PREC = Accurate
   ENCUT = 500
   GGA = PE
   ALGO = Normal
   NELM = 100
   NELMIN = 5
   EDIFF = 1E-6
   ISMEAR = 0
   SIGMA = 0.05
   IBRION = -1
   NSW = 0
   IVDW = 12
   LREAL = .FALSE.
   LCHARG = .TRUE.
   LWAVE = .TRUE.
   NWRITE = 1
   NCORE = 4

 POTCAR:    PAW_PBE Mo_sv 02Feb2006               
 POTCAR:    PAW_PBE S 06Sep2000                   
 POTCAR:    PAW_PBE Mo_sv 02Feb2006               
  local pseudopotential read in
  partial core-charges read in
  partial kinetic energy density read in
  atomic valenz-charges read in
  non local Contribution for L=           0  read in
    real space projection operators read in
  non local Contribution for L=           0  read in
    real space projection operators read in
  non local Contribution for L=           1  read in
    real space projection operators read in
  non local Contribution for L=           1  read in
    real space projection operators read in
  non local Contribution for L=           2  read in
    real space projection operators read in
  non local Contribution for L=           2  read in
    real space projection operators read in
    PAW grid and wavefunctions read in
 
   number of l-projection  operators is LMAX  =           6
   number of lm-projection operators is LMMAX =          18
 
 POTCAR:    PAW_PBE S 06Sep2000                   
  local pseudopotential read in
  partial core-charges read in
  partial kinetic energy density read in
  atomic valenz-charges read in
  non local Contribution for L=           0  read in
    real space projection operators read in
  non local Contribution for L=           0  read in
    real space projection operators read in
  non local Contribution for L=           1  read in
    real space projection operators read in
  non local Contribution for L=           1  read in
    real space projection operators read in
    PAW grid and wavefunctions read in
 
   number of l-projection  operators is LMAX  =           4
   number of lm-projection operators is LMMAX =           8
 
  PAW_PBE Mo_sv 02Feb2006               :
 energy of atom  1       EATOM=-1862.2866
 kinetic energy error for atom=    0.0074 (will be added to EATOM!!)
  PAW_PBE S 06Sep2000                   :
 energy of atom  2       EATOM= -276.8230
 kinetic energy error for atom=    0.0020 (will be added to EATOM!!)
 
 
 POSCAR: Mo S
  positions in direct lattice
  No initial velocities read in
 exchange correlation table for  LEXCH =        8
   RHO(1)=    0.500       N(1)  =     2000
   RHO(2)=  100.500       N(2)  =     4000

 VTST: version 4.0, (05/15/20)

 CHAIN: initializing optimizer
 
 OPT: Using VASP Dynamics algorithm
 CHAIN: Read ICHAIN            0
 
 POSCAR: Mo S
  positions in direct lattice
  No initial velocities read in
 


--------------------------------------------------------------------------------------------------------


 ion  position               nearest neighbor table
   1  0.667  0.333  0.250-   6 2.42   6 2.42   4 2.42   6 2.42
   2  0.333  0.667  0.750-   3 2.42   5 2.42   3 2.42   5 2.42   3 2.42   5 2.42
   3  0.667  0.333  0.633-   2 2.42   2 2.42   2 2.42
   4  0.940  0.352  0.419-   1 2.42
   5  0.667  0.333  0.867-   2 2.42   2 2.42   2 2.42
   6  0.333  0.667  0.133-   1 2.42   1 2.42   1 2.42
 
  LATTYP: Found a hexagonal cell.
 ALAT       =     3.1922378540
 C/A-ratio  =     4.1908825730
  
  Lattice vectors:
  
 A1 = (   1.5961189270,  -2.7645590765,   0.0000000000)
 A2 = (   1.5961189270,   2.7645590765,   0.0000000000)
 A3 = (   0.0000000000,   0.0000000000,  13.3782939911)


Analysis of symmetry for initial positions (statically):
=====================================================================
 Subroutine PRICEL returns:
 Original cell was already a primitive cell.
 

 Routine SETGRP: Setting up the symmetry group for a 
 hexagonal supercell.


 Subroutine GETGRP returns: Found  1 space group operations
 (whereof  1 operations were pure point group operations)
 out of a pool of 24 trial point group operations.


The static configuration has the point symmetry C_1 .


Analysis of symmetry for dynamics (positions and initial velocities):
=====================================================================
 Subroutine PRICEL returns:
 Original cell was already a primitive cell.
 

 Routine SETGRP: Setting up the symmetry group for a 
 hexagonal supercell.


 Subroutine GETGRP returns: Found  1 space group operations
 (whereof  1 operations were pure point group operations)
 out of a pool of 24 trial point group operations.


The dynamic configuration has the point symmetry C_1 .


 Subroutine INISYM returns: Found  1 space group operations
 (whereof  1 operations are pure point group operations),
 and found     1 'primitive' translations


----------------------------------------------------------------------------------------

                                     Primitive cell                                     

  volume of cell :     118.0652

  direct lattice vectors                    reciprocal lattice vectors
     1.596118927 -2.764559076  0.000000000     0.313259865 -0.180860668  0.000000000
     1.596118927  2.764559076  0.000000000     0.313259865  0.180860668  0.000000000
     0.000000000  0.000000000 13.378293991     0.000000000  0.000000000  0.074747946

  length of vectors
     3.192237854  3.192237854 13.378293991     0.361721335  0.361721335  0.074747946

  position of ions in fractional coordinates (direct lattice)
     0.666666667  0.333333333  0.250000000
     0.333333333  0.666666667  0.750000000
     0.666666667  0.333333333  0.633082000
     0.939610492  0.352101181  0.419347346
     0.666666667  0.333333333  0.866918000
     0.333333333  0.666666667  0.133082000

  ion indices of the primitive-cell ions
   primitive index   ion index
                 1           1
                 2           2
                 3           3
                 4           4
                 5           5
                 6           6

----------------------------------------------------------------------------------------

 
 
 KPOINTS: K-Spacing Value to Generate K-Mesh: 0.15

Automatic generation of k-mesh.
 Grid dimensions read from file:
 generate k-points for:    2    2    1

 Generating k-lattice:

  Cartesian coordinates                     Fractional coordinates (reciprocal lattice)
     0.156629933 -0.090430334  0.000000000     0.500000000  0.000000000  0.000000000
     0.156629933  0.090430334  0.000000000     0.000000000  0.500000000  0.000000000
     0.000000000  0.000000000  0.074747946     0.000000000  0.000000000  1.000000000

  Length of vectors
     0.180860668  0.180860668  0.074747946

  Shift w.r.t. Gamma in fractional coordinates (k-lattice)
     0.500000000  0.500000000  0.000000000

 
 Subroutine IBZKPT returns following result:
 ===========================================
 
 Found      6 irreducible k-points:
 
 Following reciprocal coordinates:
            Coordinates               Weight
  0.250000  0.250000  0.000000      2.000000
 -0.250000  0.500000  0.000000      2.000000
  0.500000  0.250000  0.000000      2.000000
 -0.250000  0.250000  0.000000      2.000000
 -0.250000  0.000000  0.000000      2.000000
  0.000000 -0.250000  0.000000      2.000000
 
 Following cartesian coordinates:
            Coordinates               Weight
  0.156630  0.000000  0.000000      2.000000
  0.078315  0.135646  0.000000      2.000000
  0.234945 -0.045215  0.000000      2.000000
  0.000000  0.090430  0.000000      2.000000
 -0.078315  0.045215  0.000000      2.000000
 -0.078315 -0.045215  0.000000      2.000000
 


--------------------------------------------------------------------------------------------------------




 Dimension of arrays:
   k-points           NKPTS =      6   k-points in BZ     NKDIM =      6   number of bands    NBANDS=     32
   number of dos      NEDOS =    301   number of ions     NIONS =      6
   non local maximal  LDIM  =      6   non local SUM 2l+1 LMDIM =     18
   total plane-waves  NPLWV =  56448
   max r-space proj   IRMAX =      1   max aug-charges    IRDMAX=  21106
   dimension x,y,z NGX =    24 NGY =   24 NGZ =   98
   dimension x,y,z NGXF=    48 NGYF=   48 NGZF=  196
   support grid    NGXF=    48 NGYF=   48 NGZF=  196
   ions per type =               2   4
   NGX,Y,Z   is equivalent  to a cutoff of  12.50, 12.50, 12.18 a.u.
   NGXF,Y,Z  is equivalent  to a cutoff of  25.00, 25.00, 24.36 a.u.

 SYSTEM =  MoS2_SinglePoint_vdW_Coulomb           
 POSCAR =  Mo S                                    

 Startparameter for this run:
   NWRITE =      1    write-flag & timer
   PREC   = accura    normal or accurate (medium, high low for compatibility)
   ISTART =      0    job   : 0-new  1-cont  2-samecut
   ICHARG =      2    charge: 1-file 2-atom 10-const
   ISPIN  =      1    spin polarized calculation?
   LNONCOLLINEAR =      F non collinear calculations
   LSORBIT =      F    spin-orbit coupling
   INIWAV =      1    electr: 0-lowe 1-rand  2-diag
   LASPH  =      F    aspherical Exc in radial PAW
   METAGGA=      F    non-selfconsistent MetaGGA calc.

 Electronic Relaxation 1
   ENCUT  =  500.0 eV  36.75 Ry    6.06 a.u.   5.82  5.82 24.39*2*pi/ulx,y,z
   ENINI  =  500.0     initial cutoff
   ENAUG  =  446.0 eV  augmentation charge cutoff
   NELM   =    100;   NELMIN=  5; NELMDL= -5     # of ELM steps 
   EDIFF  = 0.1E-05   stopping-criterion for ELM
   LREAL  =      F    real-space projection
   NLSPLINE    = F    spline interpolate recip. space projectors
   LCOMPAT=      F    compatible to vasp.4.4
   GGA_COMPAT  = T    GGA compatible to vasp.4.4-vasp.4.6
   LMAXPAW     = -100 max onsite density
   LMAXMIX     =    2 max onsite mixed and CHGCAR
   VOSKOWN=      0    Vosko Wilk Nusair interpolation
   ROPT   =    0.00000   0.00000
 Ionic relaxation
   EDIFFG = 0.1E-04   stopping-criterion for IOM
   NSW    =      0    number of steps for IOM
   NBLOCK =      1;   KBLOCK =      1    inner block; outer block 
   IBRION =     -1    ionic relax: 0-MD 1-quasi-New 2-CG
   NFREE  =      0    steps in history (QN), initial steepest desc. (CG)
   ISIF   =      2    stress and relaxation
   IWAVPR =     10    prediction:  0-non 1-charg 2-wave 3-comb
   ISYM   =      2    0-nonsym 1-usesym 2-fastsym
   LCORR  =      T    Harris-Foulkes like correction to forces

   POTIM  = 0.5000    time-step for ionic-motion
   TEIN   =    0.0    initial temperature
   TEBEG  =    0.0;   TEEND  =   0.0 temperature during run
   SMASS  =  -3.00    Nose mass-parameter (am)
   estimated Nose-frequenzy (Omega)   =  0.10E-29 period in steps = 0.13E+47 mass=  -0.233E-27a.u.
   SCALEE = 1.0000    scale energy and forces
   NPACO  =    256;   APACO  = 16.0  distance and # of slots for P.C.
   PSTRESS=    0.0 pullay stress

  Mass of Ions in am
   POMASS =  95.94 32.07
  Ionic Valenz
   ZVAL   =  14.00  6.00
  Atomic Wigner-Seitz radii
   RWIGS  =  -1.00 -1.00
  virtual crystal weights 
   VCA    =   1.00  1.00
   NELECT =      52.0000    total number of electrons
   NUPDOWN=      -1.0000    fix difference up-down

 DOS related values:
   EMIN   =  10.00;   EMAX   =-10.00  energy-range for DOS
   EFERMI =   0.00
   ISMEAR =     0;   SIGMA  =   0.05  broadening in eV -4-tet -1-fermi 0-gaus

 Electronic relaxation 2 (details)
   IALGO  =     38    algorithm
   LDIAG  =      T    sub-space diagonalisation (order eigenvalues)
   LSUBROT=      F    optimize rotation matrix (better conditioning)
   TURBO    =      0    0=normal 1=particle mesh
   IRESTART =      0    0=no restart 2=restart with 2 vectors
   NREBOOT  =      0    no. of reboots
   NMIN     =      0    reboot dimension
   EREF     =   0.00    reference energy to select bands
   IMIX   =      4    mixing-type and parameters
     AMIX     =   0.40;   BMIX     =  1.00
     AMIX_MAG =   1.60;   BMIX_MAG =  1.00
     AMIN     =   0.10
     WC   =   100.;   INIMIX=   1;  MIXPRE=   1;  MAXMIX= -45

 Intra band minimization:
   WEIMIN = 0.0000     energy-eigenvalue tresh-hold
   EBREAK =  0.78E-08  absolut break condition
   DEPER  =   0.30     relativ break condition  

   TIME   =   0.40     timestep for ELM

  volume/ion in A,a.u.               =      19.68       132.79
  Fermi-wavevector in a.u.,A,eV,Ry     =   1.245571  2.353789 21.108736  1.551448
  Thomas-Fermi vector in A             =   2.379788
 
 Write flags
   LWAVE        =      T    write WAVECAR
   LDOWNSAMPLE  =      F    k-point downsampling of WAVECAR
   LCHARG       =      T    write CHGCAR
   LVTOT        =      F    write LOCPOT, total local potential
   LVHAR        =      F    write LOCPOT, Hartree potential only
   LELF         =      F    write electronic localiz. function (ELF)
   LORBIT       =      0    0 simple, 1 ext, 2 COOP (PROOUT), +10 PAW based schemes


 Dipole corrections
   LMONO  =      F    monopole corrections only (constant potential shift)
   LDIPOL =      F    correct potential (dipole corrections)
   IDIPOL =      0    1-x, 2-y, 3-z, 4-all directions 
   EPSILON=  1.0000000 bulk dielectric constant

 Exchange correlation treatment:
   GGA     =    PE    GGA type
   LEXCH   =     8    internal setting for exchange type
   VOSKOWN=      0    Vosko Wilk Nusair interpolation
   LHFCALC =     F    Hartree Fock is set to
   LHFONE  =     F    Hartree Fock one center treatment
   AEXX    =    0.0000 exact exchange contribution

 Linear response parameters
   LEPSILON=     F    determine dielectric tensor
   LRPA    =     F    only Hartree local field effects (RPA)
   LNABLA  =     F    use nabla operator in PAW spheres
   LVEL    =     F    velocity operator in full k-point grid
   LINTERFAST=   F  fast interpolation
   KINTER  =     0    interpolate to denser k-point grid
   CSHIFT  =0.1000    complex shift for real part using Kramers Kronig
   OMEGAMAX=  -1.0    maximum frequency
   DEG_THRESHOLD= 0.2000000E-02 threshold for treating states as degnerate
   RTIME   =   -0.100 relaxation time in fs
  (WPLASMAI=    0.000 imaginary part of plasma frequency in eV, 0.658/RTIME)
   DFIELD  = 0.0000000 0.0000000 0.0000000 field for delta impulse in time
 
 Orbital magnetization related:
   ORBITALMAG=     F  switch on orbital magnetization
   LCHIMAG   =     F  perturbation theory with respect to B field
   DQ        =  0.001000  dq finite difference perturbation B field
   LLRAUG    =     F  two centre corrections for induced B field



--------------------------------------------------------------------------------------------------------


 Static calculation
 charge density and potential will be updated during run
 non-spin polarized calculation
 Variant of blocked Davidson
 Davidson routine will perform the subspace rotation
 perform sub-space diagonalisation
    after iterative eigenvector-optimisation
 modified Broyden-mixing scheme, WC =      100.0
 initial mixing is a Kerker type mixing with AMIX =  0.4000 and BMIX =      1.0000
 Hartree-type preconditioning will be used
 using additional bands            6
 reciprocal scheme for non local part
 use partial core corrections
 calculate Harris-corrections to forces 
   (improved forces if not selfconsistent)
 use gradient corrections 
 use of overlap-Matrix (Vanderbilt PP)
 Gauss-broadening in eV      SIGMA  =   0.05


--------------------------------------------------------------------------------------------------------


  energy-cutoff  :      500.00
  volume of cell :      118.07
      direct lattice vectors                 reciprocal lattice vectors
     1.596118927 -2.764559076  0.000000000     0.313259865 -0.180860668  0.000000000
     1.596118927  2.764559076  0.000000000     0.313259865  0.180860668  0.000000000
     0.000000000  0.000000000 13.378293991     0.000000000  0.000000000  0.074747946

  length of vectors
     3.192237854  3.192237854 13.378293991     0.361721335  0.361721335  0.074747946


 
 k-points in units of 2pi/SCALE and weight: K-Spacing Value to Generate K-Mesh: 0.15
   0.15662993  0.00000000  0.00000000       0.167
   0.07831497  0.13564550  0.00000000       0.167
   0.23494490 -0.04521517  0.00000000       0.167
   0.00000000  0.09043033  0.00000000       0.167
  -0.07831497  0.04521517  0.00000000       0.167
  -0.07831497 -0.04521517  0.00000000       0.167
 
 k-points in reciprocal lattice and weights: K-Spacing Value to Generate K-Mesh: 0.15
   0.25000000  0.25000000  0.00000000       0.167
  -0.25000000  0.50000000  0.00000000       0.167
   0.50000000  0.25000000  0.00000000       0.167
  -0.25000000  0.25000000  0.00000000       0.167
  -0.25000000  0.00000000  0.00000000       0.167
   0.00000000 -0.25000000  0.00000000       0.167
 
 position of ions in fractional coordinates (direct lattice) 
   0.66666667  0.33333333  0.25000000
   0.33333333  0.66666667  0.75000000
   0.66666667  0.33333333  0.63308200
   0.93961049  0.35210118  0.41934735
   0.66666667  0.33333333  0.86691800
   0.33333333  0.66666667  0.13308200
 
 position of ions in cartesian coordinates  (Angst):
   1.59611893 -0.92151969  3.34457350
   1.59611893  0.92151969 10.03372049
   1.59611893 -0.92151969  8.46955712
   2.06172545 -1.62420420  5.61015208
   1.59611893 -0.92151969 11.59788387
   1.59611893  0.92151969  1.78041012
 


--------------------------------------------------------------------------------------------------------


 k-point   1 :   0.2500 0.2500 0.0000  plane waves:    3020
 k-point   2 :  -0.2500 0.5000 0.0000  plane waves:    3020
 k-point   3 :   0.5000 0.2500 0.0000  plane waves:    3020
 k-point   4 :  -0.2500 0.2500 0.0000  plane waves:    2992
 k-point   5 :  -0.2500 0.0000 0.0000  plane waves:    2992
 k-point   6 :   0.0000-0.2500 0.0000  plane waves:    2992

 maximum and minimum number of plane-waves per node :       767      745

 maximum number of plane-waves:      3020
 maximum index in each direction: 
   IXMAX=    6   IYMAX=    6   IZMAX=   24
   IXMIN=   -6   IYMIN=   -6   IZMIN=  -24


 parallel 3D FFT for wavefunctions:
    minimum data exchange during FFTs selected (reduces bandwidth)
 parallel 3D FFT for charge:
    minimum data exchange during FFTs selected (reduces bandwidth)


 total amount of memory used by VASP MPI-rank0    38677. kBytes
=======================================================================

   base      :      30000. kBytes
   nonl-proj :       1371. kBytes
   fftplans  :       2330. kBytes
   grid      :       3750. kBytes
   one-center:         31. kBytes
   wavefun   :       1195. kBytes
 
     INWAV:  cpu time    0.0001: real time    0.0005
 Broyden mixing: mesh for mixing (old mesh)
   NGX = 11   NGY = 11   NGZ = 49
  (NGX  = 48   NGY  = 48   NGZ  =196)
  gives a total of   5929 points

 initial charge density was supplied:
 charge density of overlapping atoms calculated
 number of electron      52.0000000 magnetization 
 keeping initial charge density in first step


--------------------------------------------------------------------------------------------------------


 Maximum index for augmentation-charges         2591 (set IRDMAX)


--------------------------------------------------------------------------------------------------------


 First call to EWALD:  gamma=   0.361
 Maximum number of real-space cells 4x 4x 1
 Maximum number of reciprocal cells 2x 2x 7

    FEWALD:  cpu time    0.0020: real time    0.0019


--------------------------------------- Iteration      1(   1)  ---------------------------------------


    POTLOK:  cpu time    0.0564: real time    0.0587
    SETDIJ:  cpu time    0.0056: real time    0.0058
     EDDAV:  cpu time    0.3978: real time    0.4263
       DOS:  cpu time    0.0008: real time    0.0008
    --------------------------------------------
      LOOP:  cpu time    0.4605: real time    0.4916

 eigenvalue-minimisations  :   432
 total energy-change (2. order) : 0.4192637E+03  (-0.2910230E+04)
 number of electron      52.0000000 magnetization 
 augmentation part       52.0000000 magnetization 

 Free energy of the ion-electron system (eV)
  ---------------------------------------------------
  alpha Z        PSCENC =       160.27286088
  Ewald energy   TEWEN  =     -3044.90907753
  -Hartree energ DENC   =     -1710.49853669
  -exchange      EXHF   =         0.00000000
  -V(xc)+E(xc)   XCENC  =       181.73273039
  PAW double counting   =      3865.57804258    -3815.84821480
  entropy T*S    EENTRO =        -0.01156852
  eigenvalues    EBANDS =       -48.89519233
  atomic energy  EATOM  =      4831.84262874
  Solvation  Ediel_sol  =         0.00000000
  ---------------------------------------------------
  free energy    TOTEN  =       419.26367272 eV

  energy without entropy =      419.27524124  energy(sigma->0) =      419.26945698


--------------------------------------------------------------------------------------------------------




--------------------------------------- Iteration      1(   2)  ---------------------------------------


     EDDAV:  cpu time    0.4088: real time    0.4129
       DOS:  cpu time    0.0007: real time    0.0007
    --------------------------------------------
      LOOP:  cpu time    0.4094: real time    0.4136

 eigenvalue-minimisations  :   464
 total energy-change (2. order) :-0.4404720E+03  (-0.4297333E+03)
 number of electron      52.0000000 magnetization 
 augmentation part       52.0000000 magnetization 

 Free energy of the ion-electron system (eV)
  ---------------------------------------------------
  alpha Z        PSCENC =       160.27286088
  Ewald energy   TEWEN  =     -3044.90907753
  -Hartree energ DENC   =     -1710.49853669
  -exchange      EXHF   =         0.00000000
  -V(xc)+E(xc)   XCENC  =       181.73273039
  PAW double counting   =      3865.57804258    -3815.84821480
  entropy T*S    EENTRO =        -0.00089999
  eigenvalues    EBANDS =      -489.37782960
  atomic energy  EATOM  =      4831.84262874
  Solvation  Ediel_sol  =         0.00000000
  ---------------------------------------------------
  free energy    TOTEN  =       -21.20829602 eV

  energy without entropy =      -21.20739603  energy(sigma->0) =      -21.20784603


--------------------------------------------------------------------------------------------------------




--------------------------------------- Iteration      1(   3)  ---------------------------------------


     EDDAV:  cpu time    0.4403: real time    0.4436
       DOS:  cpu time    0.0005: real time    0.0005
    --------------------------------------------
      LOOP:  cpu time    0.4408: real time    0.4440

 eigenvalue-minimisations  :   504
 total energy-change (2. order) :-0.2300204E+02  (-0.2251366E+02)
 number of electron      52.0000000 magnetization 
 augmentation part       52.0000000 magnetization 

 Free energy of the ion-electron system (eV)
  ---------------------------------------------------
  alpha Z        PSCENC =       160.27286088
  Ewald energy   TEWEN  =     -3044.90907753
  -Hartree energ DENC   =     -1710.49853669
  -exchange      EXHF   =         0.00000000
  -V(xc)+E(xc)   XCENC  =       181.73273039
  PAW double counting   =      3865.57804258    -3815.84821480
  entropy T*S    EENTRO =        -0.00000003
  eigenvalues    EBANDS =      -512.38076679
  atomic energy  EATOM  =      4831.84262874
  Solvation  Ediel_sol  =         0.00000000
  ---------------------------------------------------
  free energy    TOTEN  =       -44.21033324 eV

  energy without entropy =      -44.21033321  energy(sigma->0) =      -44.21033323


--------------------------------------------------------------------------------------------------------




--------------------------------------- Iteration      1(   4)  ---------------------------------------


     EDDAV:  cpu time    0.4181: real time    0.4204
       DOS:  cpu time    0.0004: real time    0.0004
    --------------------------------------------
      LOOP:  cpu time    0.4185: real time    0.4208

 eigenvalue-minimisations  :   472
 total energy-change (2. order) :-0.5369960E+00  (-0.5355205E+00)
 number of electron      52.0000000 magnetization 
 augmentation part       52.0000000 magnetization 

 Free energy of the ion-electron system (eV)
  ---------------------------------------------------
  alpha Z        PSCENC =       160.27286088
  Ewald energy   TEWEN  =     -3044.90907753
  -Hartree energ DENC   =     -1710.49853669
  -exchange      EXHF   =         0.00000000
  -V(xc)+E(xc)   XCENC  =       181.73273039
  PAW double counting   =      3865.57804258    -3815.84821480
  entropy T*S    EENTRO =        -0.00000005
  eigenvalues    EBANDS =      -512.91776277
  atomic energy  EATOM  =      4831.84262874
  Solvation  Ediel_sol  =         0.00000000
  ---------------------------------------------------
  free energy    TOTEN  =       -44.74732924 eV

  energy without entropy =      -44.74732919  energy(sigma->0) =      -44.74732922


--------------------------------------------------------------------------------------------------------




--------------------------------------- Iteration      1(   5)  ---------------------------------------


     EDDAV:  cpu time    0.4468: real time    0.4499
       DOS:  cpu time    0.0004: real time    0.0004
    CHARGE:  cpu time    0.0371: real time    0.0372
    MIXING:  cpu time    0.0014: real time    0.0014
    --------------------------------------------
      LOOP:  cpu time    0.4858: real time    0.4889

 eigenvalue-minimisations  :   520
 total energy-change (2. order) :-0.1529486E-01  (-0.1528497E-01)
 number of electron      51.9999992 magnetization 
 augmentation part        0.6362190 magnetization 

 Broyden mixing:
  rms(total) = 0.29368E+01    rms(broyden)= 0.29368E+01
  rms(prec ) = 0.30861E+01
  weight for this iteration     100.00

 Free energy of the ion-electron system (eV)
  ---------------------------------------------------
  alpha Z        PSCENC =       160.27286088
  Ewald energy   TEWEN  =     -3044.90907753
  -Hartree energ DENC   =     -1710.49853669
  -exchange      EXHF   =         0.00000000
  -V(xc)+E(xc)   XCENC  =       181.73273039
  PAW double counting   =      3865.57804258    -3815.84821480
  entropy T*S    EENTRO =        -0.00000005
  eigenvalues    EBANDS =      -512.93305762
  atomic energy  EATOM  =      4831.84262874
  Solvation  Ediel_sol  =         0.00000000
  ---------------------------------------------------
  free energy    TOTEN  =       -44.76262410 eV

  energy without entropy =      -44.76262405  energy(sigma->0) =      -44.76262407


--------------------------------------------------------------------------------------------------------




--------------------------------------- Iteration      1(   6)  ---------------------------------------


    POTLOK:  cpu time    0.0558: real time    0.0591
    SETDIJ:  cpu time    0.0054: real time    0.0054
     EDDAV:  cpu time    0.4107: real time    0.4108
       DOS:  cpu time    0.0005: real time    0.0005
    CHARGE:  cpu time    0.0363: real time    0.0363
    MIXING:  cpu time    0.0016: real time    0.0045
    --------------------------------------------
      LOOP:  cpu time    0.5103: real time    0.5167

 eigenvalue-minimisations  :   464
 total energy-change (2. order) :-0.5853816E-01  (-0.4209714E+01)
 number of electron      51.9999989 magnetization 
 augmentation part        2.3937830 magnetization 

 Broyden mixing:
  rms(total) = 0.15700E+01    rms(broyden)= 0.15700E+01
  rms(prec ) = 0.21693E+01
  weight for this iteration     100.00

 eigenvalues of (default mixing * dielectric matrix)
  average eigenvalue GAMMA=   0.9234
  0.9234

 Free energy of the ion-electron system (eV)
  ---------------------------------------------------
  alpha Z        PSCENC =       160.27286088
  Ewald energy   TEWEN  =     -3044.90907753
  -Hartree energ DENC   =     -1643.60591237
  -exchange      EXHF   =         0.00000000
  -V(xc)+E(xc)   XCENC  =       179.92671130
  PAW double counting   =      4429.91118667    -4387.24130994
  entropy T*S    EENTRO =        -0.00000302
  eigenvalues    EBANDS =      -571.01824698
  atomic energy  EATOM  =      4831.84262874
  Solvation  Ediel_sol  =         0.00000000
  ---------------------------------------------------
  free energy    TOTEN  =       -44.82116226 eV

  energy without entropy =      -44.82115924  energy(sigma->0) =      -44.82116075


--------------------------------------------------------------------------------------------------------




--------------------------------------- Iteration      1(   7)  ---------------------------------------


    POTLOK:  cpu time    0.0550: real time    0.0579
    SETDIJ:  cpu time    0.0053: real time    0.0053
     EDDAV:  cpu time    0.4347: real time    0.4348
       DOS:  cpu time    0.0004: real time    0.0004
    CHARGE:  cpu time    0.0370: real time    0.0370
    MIXING:  cpu time    0.0014: real time    0.0014
    --------------------------------------------
      LOOP:  cpu time    0.5338: real time    0.5368

 eigenvalue-minimisations  :   504
 total energy-change (2. order) : 0.8566616E+00  (-0.5749523E+01)
 number of electron      51.9999991 magnetization 
 augmentation part        1.0832941 magnetization 

 Broyden mixing:
  rms(total) = 0.10541E+01    rms(broyden)= 0.10541E+01
  rms(prec ) = 0.15405E+01
  weight for this iteration     100.00

 eigenvalues of (default mixing * dielectric matrix)
  average eigenvalue GAMMA=   0.9469
  1.4614  0.4324

 Free energy of the ion-electron system (eV)
  ---------------------------------------------------
  alpha Z        PSCENC =       160.27286088
  Ewald energy   TEWEN  =     -3044.90907753
  -Hartree energ DENC   =     -1694.02145669
  -exchange      EXHF   =         0.00000000
  -V(xc)+E(xc)   XCENC  =       180.80398063
  PAW double counting   =      4845.43288901    -4799.91875239
  entropy T*S    EENTRO =        -0.00000004
  eigenvalues    EBANDS =      -523.46757328
  atomic energy  EATOM  =      4831.84262874
  Solvation  Ediel_sol  =         0.00000000
  ---------------------------------------------------
  free energy    TOTEN  =       -43.96450067 eV

  energy without entropy =      -43.96450063  energy(sigma->0) =      -43.96450065


--------------------------------------------------------------------------------------------------------




--------------------------------------- Iteration      1(   8)  ---------------------------------------


    POTLOK:  cpu time    0.0549: real time    0.0579
    SETDIJ:  cpu time    0.0053: real time    0.0053
     EDDAV:  cpu time    0.4098: real time    0.4098
       DOS:  cpu time    0.0006: real time    0.0006
    CHARGE:  cpu time    0.0366: real time    0.0366
    MIXING:  cpu time    0.0014: real time    0.0014
    --------------------------------------------
      LOOP:  cpu time    0.5086: real time    0.5116

 eigenvalue-minimisations  :   464
 total energy-change (2. order) : 0.2247341E+01  (-0.8687886E+00)
 number of electron      51.9999991 magnetization 
 augmentation part        1.3500724 magnetization 

 Broyden mixing:
  rms(total) = 0.49612E+00    rms(broyden)= 0.49612E+00
  rms(prec ) = 0.55125E+00
  weight for this iteration     100.00

 eigenvalues of (default mixing * dielectric matrix)
  average eigenvalue GAMMA=   1.0240
  1.9880  0.6733  0.4106

 Free energy of the ion-electron system (eV)
  ---------------------------------------------------
  alpha Z        PSCENC =       160.27286088
  Ewald energy   TEWEN  =     -3044.90907753
  -Hartree energ DENC   =     -1680.52980443
  -exchange      EXHF   =         0.00000000
  -V(xc)+E(xc)   XCENC  =       180.51224843
  PAW double counting   =      5227.95435313    -5184.11338742
  entropy T*S    EENTRO =        -0.00017900
  eigenvalues    EBANDS =      -532.74680293
  atomic energy  EATOM  =      4831.84262874
  Solvation  Ediel_sol  =         0.00000000
  ---------------------------------------------------
  free energy    TOTEN  =       -41.71716013 eV

  energy without entropy =      -41.71698113  energy(sigma->0) =      -41.71707063


--------------------------------------------------------------------------------------------------------




--------------------------------------- Iteration      1(   9)  ---------------------------------------


    POTLOK:  cpu time    0.0564: real time    0.0598
    SETDIJ:  cpu time    0.0056: real time    0.0056
     EDDAV:  cpu time    0.4496: real time    0.4497
       DOS:  cpu time    0.0008: real time    0.0008
    CHARGE:  cpu time    0.0370: real time    0.0370
    MIXING:  cpu time    0.0015: real time    0.0015
    --------------------------------------------
      LOOP:  cpu time    0.5509: real time    0.5544

 eigenvalue-minimisations  :   520
 total energy-change (2. order) : 0.1157665E+00  (-0.1185529E+00)
 number of electron      51.9999991 magnetization 
 augmentation part        1.5707664 magnetization 

 Broyden mixing:
  rms(total) = 0.14932E+00    rms(broyden)= 0.14932E+00
  rms(prec ) = 0.16908E+00
  weight for this iteration     100.00

 eigenvalues of (default mixing * dielectric matrix)
  average eigenvalue GAMMA=   1.0452
  2.1687  0.9981  0.4464  0.5677

 Free energy of the ion-electron system (eV)
  ---------------------------------------------------
  alpha Z        PSCENC =       160.27286088
  Ewald energy   TEWEN  =     -3044.90907753
  -Hartree energ DENC   =     -1671.01478400
  -exchange      EXHF   =         0.00000000
  -V(xc)+E(xc)   XCENC  =       180.23722591
  PAW double counting   =      5486.56777390    -5443.97362345
  entropy T*S    EENTRO =        -0.00177109
  eigenvalues    EBANDS =      -540.62262700
  atomic energy  EATOM  =      4831.84262874
  Solvation  Ediel_sol  =         0.00000000
  ---------------------------------------------------
  free energy    TOTEN  =       -41.60139365 eV

  energy without entropy =      -41.59962256  energy(sigma->0) =      -41.60050811


--------------------------------------------------------------------------------------------------------




--------------------------------------- Iteration      1(  10)  ---------------------------------------


    POTLOK:  cpu time    0.0555: real time    0.0590
    SETDIJ:  cpu time    0.0053: real time    0.0053
     EDDAV:  cpu time    0.4274: real time    0.4275
       DOS:  cpu time    0.0006: real time    0.0006
    CHARGE:  cpu time    0.0370: real time    0.0370
    MIXING:  cpu time    0.0015: real time    0.0015
    --------------------------------------------
      LOOP:  cpu time    0.5272: real time    0.5308

 eigenvalue-minimisations  :   488
 total energy-change (2. order) : 0.1068964E-01  (-0.7926962E-02)
 number of electron      51.9999991 magnetization 
 augmentation part        1.5724398 magnetization 

 Broyden mixing:
  rms(total) = 0.82645E-01    rms(broyden)= 0.82644E-01
  rms(prec ) = 0.93976E-01
  weight for this iteration     100.00

 eigenvalues of (default mixing * dielectric matrix)
  average eigenvalue GAMMA=   1.0739
  1.9395  1.5890  0.4340  0.7658  0.6412

 Free energy of the ion-electron system (eV)
  ---------------------------------------------------
  alpha Z        PSCENC =       160.27286088
  Ewald energy   TEWEN  =     -3044.90907753
  -Hartree energ DENC   =     -1671.15897736
  -exchange      EXHF   =         0.00000000
  -V(xc)+E(xc)   XCENC  =       180.22018470
  PAW double counting   =      5546.05984996    -5503.60414443
  entropy T*S    EENTRO =        -0.00195044
  eigenvalues    EBANDS =      -540.31207852
  atomic energy  EATOM  =      4831.84262874
  Solvation  Ediel_sol  =         0.00000000
  ---------------------------------------------------
  free energy    TOTEN  =       -41.59070401 eV

  energy without entropy =      -41.58875357  energy(sigma->0) =      -41.58972879


--------------------------------------------------------------------------------------------------------




--------------------------------------- Iteration      1(  11)  ---------------------------------------


    POTLOK:  cpu time    0.0548: real time    0.0573
    SETDIJ:  cpu time    0.0052: real time    0.0052
     EDDAV:  cpu time    0.4141: real time    0.4141
       DOS:  cpu time    0.0006: real time    0.0006
    CHARGE:  cpu time    0.0372: real time    0.0372
    MIXING:  cpu time    0.0016: real time    0.0016
    --------------------------------------------
      LOOP:  cpu time    0.5135: real time    0.5160

 eigenvalue-minimisations  :   472
 total energy-change (2. order) : 0.3190423E-02  (-0.3224021E-02)
 number of electron      51.9999991 magnetization 
 augmentation part        1.5454730 magnetization 

 Broyden mixing:
  rms(total) = 0.36011E-01    rms(broyden)= 0.36011E-01
  rms(prec ) = 0.39012E-01
  weight for this iteration     100.00

 eigenvalues of (default mixing * dielectric matrix)
  average eigenvalue GAMMA=   1.1569
  2.1656  2.1656  0.4350  0.6306  0.7721  0.7721

 Free energy of the ion-electron system (eV)
  ---------------------------------------------------
  alpha Z        PSCENC =       160.27286088
  Ewald energy   TEWEN  =     -3044.90907753
  -Hartree energ DENC   =     -1672.06259690
  -exchange      EXHF   =         0.00000000
  -V(xc)+E(xc)   XCENC  =       180.24554472
  PAW double counting   =      5537.67054469    -5495.13709636
  entropy T*S    EENTRO =        -0.00205841
  eigenvalues    EBANDS =      -539.50826343
  atomic energy  EATOM  =      4831.84262874
  Solvation  Ediel_sol  =         0.00000000
  ---------------------------------------------------
  free energy    TOTEN  =       -41.58751359 eV

  energy without entropy =      -41.58545518  energy(sigma->0) =      -41.58648438


--------------------------------------------------------------------------------------------------------




--------------------------------------- Iteration      1(  12)  ---------------------------------------


    POTLOK:  cpu time    0.0550: real time    0.0584
    SETDIJ:  cpu time    0.0053: real time    0.0053
     EDDAV:  cpu time    0.4389: real time    0.4391
       DOS:  cpu time    0.0007: real time    0.0007
    CHARGE:  cpu time    0.0371: real time    0.0371
    MIXING:  cpu time    0.0016: real time    0.0016
    --------------------------------------------
      LOOP:  cpu time    0.5385: real time    0.5421

 eigenvalue-minimisations  :   504
 total energy-change (2. order) :-0.2717628E-03  (-0.6206713E-03)
 number of electron      51.9999991 magnetization 
 augmentation part        1.5522894 magnetization 

 Broyden mixing:
  rms(total) = 0.17282E-01    rms(broyden)= 0.17282E-01
  rms(prec ) = 0.21657E-01
  weight for this iteration     100.00

 eigenvalues of (default mixing * dielectric matrix)
  average eigenvalue GAMMA=   1.1721
  2.0205  2.0205  1.4473  0.4343  0.9098  0.6177  0.7547

 Free energy of the ion-electron system (eV)
  ---------------------------------------------------
  alpha Z        PSCENC =       160.27286088
  Ewald energy   TEWEN  =     -3044.90907753
  -Hartree energ DENC   =     -1672.04283534
  -exchange      EXHF   =         0.00000000
  -V(xc)+E(xc)   XCENC  =       180.25014156
  PAW double counting   =      5546.58486885    -5504.07171842
  entropy T*S    EENTRO =        -0.00225354
  eigenvalues    EBANDS =      -539.51240054
  atomic energy  EATOM  =      4831.84262874
  Solvation  Ediel_sol  =         0.00000000
  ---------------------------------------------------
  free energy    TOTEN  =       -41.58778535 eV

  energy without entropy =      -41.58553181  energy(sigma->0) =      -41.58665858


--------------------------------------------------------------------------------------------------------




--------------------------------------- Iteration      1(  13)  ---------------------------------------


    POTLOK:  cpu time    0.0548: real time    0.0579
    SETDIJ:  cpu time    0.0053: real time    0.0053
     EDDAV:  cpu time    0.4246: real time    0.4247
       DOS:  cpu time    0.0006: real time    0.0006
    CHARGE:  cpu time    0.0372: real time    0.0372
    MIXING:  cpu time    0.0016: real time    0.0016
    --------------------------------------------
      LOOP:  cpu time    0.5242: real time    0.5274

 eigenvalue-minimisations  :   488
 total energy-change (2. order) : 0.5364214E-04  (-0.4301355E-03)
 number of electron      51.9999991 magnetization 
 augmentation part        1.5448019 magnetization 

 Broyden mixing:
  rms(total) = 0.10864E-01    rms(broyden)= 0.10864E-01
  rms(prec ) = 0.16024E-01
  weight for this iteration     100.00

 eigenvalues of (default mixing * dielectric matrix)
  average eigenvalue GAMMA=   1.1514
  2.1811  2.1811  1.4597  1.0390  0.4338  0.6983  0.6089  0.6089

 Free energy of the ion-electron system (eV)
  ---------------------------------------------------
  alpha Z        PSCENC =       160.27286088
  Ewald energy   TEWEN  =     -3044.90907753
  -Hartree energ DENC   =     -1672.30525530
  -exchange      EXHF   =         0.00000000
  -V(xc)+E(xc)   XCENC  =       180.25834716
  PAW double counting   =      5544.03197583    -5501.49593995
  entropy T*S    EENTRO =        -0.00199677
  eigenvalues    EBANDS =      -539.28127477
  atomic energy  EATOM  =      4831.84262874
  Solvation  Ediel_sol  =         0.00000000
  ---------------------------------------------------
  free energy    TOTEN  =       -41.58773171 eV

  energy without entropy =      -41.58573494  energy(sigma->0) =      -41.58673333


--------------------------------------------------------------------------------------------------------




--------------------------------------- Iteration      1(  14)  ---------------------------------------


    POTLOK:  cpu time    0.0569: real time    0.0605
    SETDIJ:  cpu time    0.0053: real time    0.0053
     EDDAV:  cpu time    0.4130: real time    0.4131
       DOS:  cpu time    0.0006: real time    0.0006
    CHARGE:  cpu time    0.0372: real time    0.0372
    MIXING:  cpu time    0.0017: real time    0.0017
    --------------------------------------------
      LOOP:  cpu time    0.5147: real time    0.5184

 eigenvalue-minimisations  :   472
 total energy-change (2. order) : 0.1076225E-03  (-0.7097438E-04)
 number of electron      51.9999991 magnetization 
 augmentation part        1.5475475 magnetization 

 Broyden mixing:
  rms(total) = 0.46489E-02    rms(broyden)= 0.46489E-02
  rms(prec ) = 0.54623E-02
  weight for this iteration     100.00

 eigenvalues of (default mixing * dielectric matrix)
  average eigenvalue GAMMA=   1.2035
  2.3057  2.3057  1.4762  1.4762  0.4339  0.8030  0.6168  0.7070  0.7070

 Free energy of the ion-electron system (eV)
  ---------------------------------------------------
  alpha Z        PSCENC =       160.27286088
  Ewald energy   TEWEN  =     -3044.90907753
  -Hartree energ DENC   =     -1672.32869373
  -exchange      EXHF   =         0.00000000
  -V(xc)+E(xc)   XCENC  =       180.26051318
  PAW double counting   =      5544.79133668    -5502.25722920
  entropy T*S    EENTRO =        -0.00208246
  eigenvalues    EBANDS =      -539.25788066
  atomic energy  EATOM  =      4831.84262874
  Solvation  Ediel_sol  =         0.00000000
  ---------------------------------------------------
  free energy    TOTEN  =       -41.58762409 eV

  energy without entropy =      -41.58554163  energy(sigma->0) =      -41.58658286


--------------------------------------------------------------------------------------------------------




--------------------------------------- Iteration      1(  15)  ---------------------------------------


    POTLOK:  cpu time    0.0547: real time    0.0583
    SETDIJ:  cpu time    0.0053: real time    0.0053
     EDDAV:  cpu time    0.4444: real time    0.4446
       DOS:  cpu time    0.0007: real time    0.0007
    CHARGE:  cpu time    0.0371: real time    0.0371
    MIXING:  cpu time    0.0017: real time    0.0017
    --------------------------------------------
      LOOP:  cpu time    0.5439: real time    0.5477

 eigenvalue-minimisations  :   512
 total energy-change (2. order) :-0.9798364E-05  (-0.7736628E-05)
 number of electron      51.9999991 magnetization 
 augmentation part        1.5479680 magnetization 

 Broyden mixing:
  rms(total) = 0.13806E-02    rms(broyden)= 0.13805E-02
  rms(prec ) = 0.15714E-02
  weight for this iteration     100.00

 eigenvalues of (default mixing * dielectric matrix)
  average eigenvalue GAMMA=   1.2250
  2.4434  2.4434  1.4874  1.4874  1.0983  0.4339  0.8273  0.6270  0.7011  0.7011

 Free energy of the ion-electron system (eV)
  ---------------------------------------------------
  alpha Z        PSCENC =       160.27286088
  Ewald energy   TEWEN  =     -3044.90907753
  -Hartree energ DENC   =     -1672.35830687
  -exchange      EXHF   =         0.00000000
  -V(xc)+E(xc)   XCENC  =       180.26213445
  PAW double counting   =      5544.33269891    -5501.79612047
  entropy T*S    EENTRO =        -0.00211581
  eigenvalues    EBANDS =      -539.23233618
  atomic energy  EATOM  =      4831.84262874
  Solvation  Ediel_sol  =         0.00000000
  ---------------------------------------------------
  free energy    TOTEN  =       -41.58763389 eV

  energy without entropy =      -41.58551808  energy(sigma->0) =      -41.58657598


--------------------------------------------------------------------------------------------------------




--------------------------------------- Iteration      1(  16)  ---------------------------------------


    POTLOK:  cpu time    0.0548: real time    0.0585
    SETDIJ:  cpu time    0.0053: real time    0.0053
     EDDAV:  cpu time    0.3722: real time    0.3723
       DOS:  cpu time    0.0007: real time    0.0007
    CHARGE:  cpu time    0.0373: real time    0.0373
    MIXING:  cpu time    0.0018: real time    0.0018
    --------------------------------------------
      LOOP:  cpu time    0.4721: real time    0.4758

 eigenvalue-minimisations  :   408
 total energy-change (2. order) :-0.6576156E-05  (-0.1940003E-05)
 number of electron      51.9999991 magnetization 
 augmentation part        1.5486249 magnetization 

 Broyden mixing:
  rms(total) = 0.95617E-03    rms(broyden)= 0.95616E-03
  rms(prec ) = 0.10664E-02
  weight for this iteration     100.00

 eigenvalues of (default mixing * dielectric matrix)
  average eigenvalue GAMMA=   1.2392
  2.6774  2.2246  1.7320  1.7320  1.2836  0.4339  0.7110  0.7110  0.6305  0.7915
  0.7032

 Free energy of the ion-electron system (eV)
  ---------------------------------------------------
  alpha Z        PSCENC =       160.27286088
  Ewald energy   TEWEN  =     -3044.90907753
  -Hartree energ DENC   =     -1672.35447612
  -exchange      EXHF   =         0.00000000
  -V(xc)+E(xc)   XCENC  =       180.26285255
  PAW double counting   =      5544.04903469    -5501.51197191
  entropy T*S    EENTRO =        -0.00211760
  eigenvalues    EBANDS =      -539.23737416
  atomic energy  EATOM  =      4831.84262874
  Solvation  Ediel_sol  =         0.00000000
  ---------------------------------------------------
  free energy    TOTEN  =       -41.58764046 eV

  energy without entropy =      -41.58552286  energy(sigma->0) =      -41.58658166


--------------------------------------------------------------------------------------------------------




--------------------------------------- Iteration      1(  17)  ---------------------------------------


    POTLOK:  cpu time    0.0561: real time    0.0605
    SETDIJ:  cpu time    0.0054: real time    0.0054
     EDDAV:  cpu time    0.3322: real time    0.3322
       DOS:  cpu time    0.0007: real time    0.0007
    --------------------------------------------
      LOOP:  cpu time    0.3944: real time    0.3988

 eigenvalue-minimisations  :   336
 total energy-change (2. order) :-0.7243543E-06  (-0.1898782E-06)
 number of electron      51.9999991 magnetization 
 augmentation part        1.5486249 magnetization 

 Free energy of the ion-electron system (eV)
  ---------------------------------------------------
  alpha Z        PSCENC =       160.27286088
  Ewald energy   TEWEN  =     -3044.90907753
  -Hartree energ DENC   =     -1672.36154621
  -exchange      EXHF   =         0.00000000
  -V(xc)+E(xc)   XCENC  =       180.26312465
  PAW double counting   =      5544.22148342    -5501.68400395
  entropy T*S    EENTRO =        -0.00211594
  eigenvalues    EBANDS =      -539.23099525
  atomic energy  EATOM  =      4831.84262874
  Solvation  Ediel_sol  =         0.00000000
  ---------------------------------------------------
  free energy    TOTEN  =       -41.58764119 eV

  energy without entropy =      -41.58552524  energy(sigma->0) =      -41.58658322


--------------------------------------------------------------------------------------------------------




 average (electrostatic) potential at core
  the test charge radii are     1.0818  0.9698
  (the norm of the test charge is              1.0000)
       1 -75.8705       2 -75.9886       3 -85.7734       4 -85.4731       5 -85.7037
       6 -85.6905
 
 
 
 E-fermi :   6.2044     XC(G=0): -10.3283     alpha+bet :-12.2268

 Fermi energy:         6.2044181504

 k-point     1 :       0.2500    0.2500    0.0000
  band No.  band energies     occupation 
      1     -55.1986      2.00000
      2     -55.0551      2.00000
      3     -29.4361      2.00000
      4     -29.3516      2.00000
      5     -29.2943      2.00000
      6     -29.2928      2.00000
      7     -29.1713      2.00000
      8     -29.0422      2.00000
      9      -6.6921      2.00000
     10      -6.4482      2.00000
     11      -6.4010      2.00000
     12      -5.3950      2.00000
     13       0.5129      2.00000
     14       0.7231      2.00000
     15       0.9781      2.00000
     16       1.7247      2.00000
     17       2.0402      2.00000
     18       2.2277      2.00000
     19       2.5976      2.00000
     20       2.6935      2.00000
     21       2.8564      2.00000
     22       3.5863      2.00000
     23       3.8382      2.00000
     24       4.3422      2.00000
     25       5.1266      2.00000
     26       5.7316      2.00000
     27       6.2666      0.07843
     28       7.7724      0.00000
     29       8.0907      0.00000
     30       8.4587      0.00000
     31       8.6385      0.00000
     32       8.8516      0.00000

 k-point     2 :      -0.2500    0.5000    0.0000
  band No.  band energies     occupation 
      1     -55.1986      2.00000
      2     -55.0551      2.00000
      3     -29.4353      2.00000
      4     -29.3517      2.00000
      5     -29.2949      2.00000
      6     -29.2921      2.00000
      7     -29.1745      2.00000
      8     -29.0400      2.00000
      9      -6.6925      2.00000
     10      -6.4494      2.00000
     11      -6.3944      2.00000
     12      -5.4056      2.00000
     13       0.5131      2.00000
     14       0.7180      2.00000
     15       0.9258      2.00000
     16       1.7644      2.00000
     17       2.0324      2.00000
     18       2.2934      2.00000
     19       2.5595      2.00000
     20       2.7503      2.00000
     21       2.9022      2.00000
     22       3.5396      2.00000
     23       3.9812      2.00000
     24       4.2390      2.00000
     25       5.1353      2.00000
     26       5.4860      2.00000
     27       6.4818      0.00000
     28       7.7382      0.00000
     29       7.9236      0.00000
     30       8.4538      0.00000
     31       8.7063      0.00000
     32       8.7548      0.00000

 k-point     3 :       0.5000    0.2500    0.0000
  band No.  band energies     occupation 
      1     -55.1986      2.00000
      2     -55.0549      2.00000
      3     -29.4359      2.00000
      4     -29.3517      2.00000
      5     -29.3297      2.00000
      6     -29.2944      2.00000
      7     -29.2065      2.00000
      8     -28.9702      2.00000
      9      -6.6862      2.00000
     10      -6.4484      2.00000
     11      -6.3999      2.00000
     12      -5.4009      2.00000
     13       0.5037      2.00000
     14       0.7170      2.00000
     15       0.9697      2.00000
     16       1.6827      2.00000
     17       2.0464      2.00000
     18       2.2177      2.00000
     19       2.6145      2.00000
     20       2.7002      2.00000
     21       2.8694      2.00000
     22       3.6042      2.00000
     23       3.9373      2.00000
     24       4.2161      2.00000
     25       5.1363      2.00000
     26       5.6518      2.00000
     27       6.4538      0.00000
     28       7.7699      0.00000
     29       8.0371      0.00000
     30       8.4430      0.00000
     31       8.6448      0.00000
     32       8.7148      0.00000

 k-point     4 :      -0.2500    0.2500    0.0000
  band No.  band energies     occupation 
      1     -55.2165      2.00000
      2     -55.0716      2.00000
      3     -29.3876      2.00000
      4     -29.3247      2.00000
      5     -29.3045      2.00000
      6     -29.1853      2.00000
      7     -29.1416      2.00000
      8     -28.8886      2.00000
      9      -7.6845      2.00000
     10      -7.1469      2.00000
     11      -6.9136      2.00000
     12      -6.1830      2.00000
     13       0.5177      2.00000
     14       1.4150      2.00000
     15       1.6327      2.00000
     16       1.9883      2.00000
     17       2.2173      2.00000
     18       3.1246      2.00000
     19       3.2115      2.00000
     20       3.6231      2.00000
     21       3.8136      2.00000
     22       3.8540      2.00000
     23       4.4248      2.00000
     24       4.9185      2.00000
     25       5.3026      2.00000
     26       6.0730      1.99980
     27       6.5002      0.00000
     28       7.1491      0.00000
     29       7.9137      0.00000
     30       7.9633      0.00000
     31       8.4107      0.00000
     32       8.9348      0.00000

 k-point     5 :      -0.2500    0.0000    0.0000
  band No.  band energies     occupation 
      1     -55.2165      2.00000
      2     -55.0716      2.00000
      3     -29.3876      2.00000
      4     -29.3253      2.00000
      5     -29.3061      2.00000
      6     -29.1847      2.00000
      7     -29.1379      2.00000
      8     -28.8904      2.00000
      9      -7.6842      2.00000
     10      -7.1521      2.00000
     11      -6.9135      2.00000
     12      -6.1742      2.00000
     13       0.5064      2.00000
     14       1.4545      2.00000
     15       1.7179      2.00000
     16       1.9566      2.00000
     17       2.2267      2.00000
     18       3.0234      2.00000
     19       3.1338      2.00000
     20       3.5957      2.00000
     21       3.7452      2.00000
     22       3.8428      2.00000
     23       4.4463      2.00000
     24       4.9426      2.00000
     25       5.3017      2.00000
     26       6.1352      1.94966
     27       6.6385      0.00000
     28       7.1634      0.00000
     29       7.9146      0.00000
     30       7.9682      0.00000
     31       8.4443      0.00000
     32       8.8730      0.00000

 k-point     6 :       0.0000   -0.2500    0.0000
  band No.  band energies     occupation 
      1     -55.2165      2.00000
      2     -55.0718      2.00000
      3     -29.3876      2.00000
      4     -29.3248      2.00000
      5     -29.2963      2.00000
      6     -29.1852      2.00000
      7     -29.0442      2.00000
      8     -28.9941      2.00000
      9      -7.6873      2.00000
     10      -7.1538      2.00000
     11      -6.9187      2.00000
     12      -6.1678      2.00000
     13       0.5082      2.00000
     14       1.4009      2.00000
     15       1.6793      2.00000
     16       1.9733      2.00000
     17       2.2248      2.00000
     18       3.1136      2.00000
     19       3.2088      2.00000
     20       3.6462      2.00000
     21       3.8429      2.00000
     22       3.9072      2.00000
     23       4.4585      2.00000
     24       4.9000      2.00000
     25       5.1596      2.00000
     26       6.1267      1.97211
     27       6.6180      0.00000
     28       6.9800      0.00000
     29       7.8708      0.00000
     30       7.9584      0.00000
     31       8.4912      0.00000
     32       8.7982      0.00000


--------------------------------------------------------------------------------------------------------


 soft charge-density along one line, spin component           1
         0         1         2         3         4         5         6         7         8         9
 total charge-density along one line
 
 pseudopotential strength for first ion, spin component:           1
 -5.074  11.431  -0.004  -0.009   0.002   0.002  -0.000  -0.000
 11.431   3.261   0.002  -0.001  -0.000   0.002   0.003  -0.001
 -0.004   0.002 -18.138   0.011   0.020   8.961  -0.013  -0.022
 -0.009  -0.001   0.011 -18.165  -0.004  -0.013   8.994   0.006
  0.002  -0.000   0.020  -0.004 -18.117  -0.022   0.006   8.937
  0.002   0.002   8.961  -0.013  -0.022   5.723   0.008   0.012
 -0.000   0.003  -0.013   8.994   0.006   0.008   5.704  -0.003
 -0.000  -0.001  -0.022   0.006   8.937   0.012  -0.003   5.735
  0.024  -0.013   0.001  -0.000  -0.002   0.000   0.000  -0.000
  0.013  -0.007   0.001   0.001  -0.000  -0.002  -0.000   0.000
 -0.027   0.015   0.004  -0.005  -0.002  -0.001  -0.000   0.000
 -0.005   0.003  -0.000  -0.001  -0.002   0.000   0.001  -0.001
  0.013  -0.008   0.005  -0.001   0.002  -0.002   0.001  -0.000
  0.025  -0.014   0.001  -0.000  -0.002   0.000   0.000  -0.000
  0.013  -0.008   0.001   0.001  -0.000  -0.002  -0.000   0.000
 -0.027   0.016   0.004  -0.006  -0.002  -0.001  -0.000   0.000
 -0.005   0.003  -0.000  -0.001  -0.002   0.000   0.001  -0.001
  0.013  -0.008   0.005  -0.001   0.002  -0.002   0.001  -0.000
 total augmentation occupancy for first ion, spin component:           1
  1.995  -0.041   0.000   0.001  -0.000   0.001   0.001  -0.001  -0.041  -0.021   0.045   0.008  -0.021   0.037   0.020  -0.041
 -0.041   1.162   0.008   0.014  -0.005  -0.021  -0.052   0.014   0.113   0.170  -0.403  -0.136   0.090  -0.101  -0.229   0.414
  0.000   0.008   1.997  -0.000  -0.000  -0.041   0.003   0.001   0.001   0.012   0.004  -0.002  -0.003  -0.002   0.001  -0.000
  0.001   0.014  -0.000   1.997   0.000   0.003  -0.047  -0.002   0.001   0.014   0.004  -0.008  -0.002   0.002  -0.002  -0.007
 -0.000  -0.005  -0.000   0.000   1.997   0.001  -0.002  -0.041  -0.003  -0.003  -0.004   0.010   0.003   0.004   0.003   0.001
  0.001  -0.021  -0.041   0.003   0.001   0.075  -0.012  -0.002  -0.012   0.175   0.036   0.032   0.126   0.013  -0.204  -0.049
  0.001  -0.052   0.003  -0.047  -0.002  -0.012   0.102   0.008   0.018   0.053  -0.086  -0.041   0.023  -0.029  -0.092   0.090
 -0.001   0.014   0.001  -0.002  -0.041  -0.002   0.008   0.074   0.151   0.034  -0.025   0.212  -0.012  -0.140  -0.031   0.033
 -0.041   0.113   0.001   0.001  -0.003  -0.012   0.018   0.151   1.671  -0.002  -0.189   0.694   0.071  -1.614  -0.073   0.143
 -0.021   0.170   0.012   0.014  -0.003   0.175   0.053   0.034  -0.002   2.531  -0.432  -0.028   0.643  -0.075  -2.975   0.580
  0.045  -0.403   0.004   0.004  -0.004   0.036  -0.086  -0.025  -0.189  -0.432   1.833   0.323  -0.140   0.142   0.582  -2.108
  0.008  -0.136  -0.002  -0.008   0.010   0.032  -0.041   0.212   0.694  -0.028   0.323   2.382  -0.092  -0.857   0.194  -0.391
 -0.021   0.090  -0.003  -0.002   0.003   0.126   0.023  -0.012   0.071   0.643  -0.140  -0.092   1.755  -0.060  -1.007   0.075
  0.037  -0.101  -0.002   0.002   0.004   0.013  -0.029  -0.140  -1.614  -0.075   0.142  -0.857  -0.060   2.411   0.122  -0.145
  0.020  -0.229   0.001  -0.002   0.003  -0.204  -0.092  -0.031  -0.073  -2.975   0.582   0.194  -1.007   0.122   4.078  -0.713
 -0.041   0.414  -0.000  -0.007   0.001  -0.049   0.090   0.033   0.143   0.580  -2.108  -0.391   0.075  -0.145  -0.713   3.152
 -0.007   0.161   0.003  -0.001   0.002  -0.030   0.067  -0.232  -0.857   0.196  -0.390  -2.765   0.010   1.060  -0.290   0.473
  0.019  -0.047   0.002  -0.001  -0.003  -0.117  -0.009   0.009  -0.060  -1.002   0.074   0.009  -1.599   0.047   1.312  -0.054


------------------------ aborting loop because EDIFF is reached ----------------------------------------


    CHARGE:  cpu time    0.0387: real time    0.0388
    FORLOC:  cpu time    0.0047: real time    0.0047
    FORNL :  cpu time    0.0758: real time    0.0759
    STRESS:  cpu time    0.1507: real time    0.1507
    FORCOR:  cpu time    0.0590: real time    0.0590
    FORHAR:  cpu time    0.0146: real time    0.0146
    MIXING:  cpu time    0.0019: real time    0.0019
    OFIELD:  cpu time    0.0000: real time    0.0000

 ---------------------------------------------------------------------------------------------

         DFTD3 V3.0 Rev 1        
 IVDW         = 12
 DF pbe       
 parameters
 VDW_S6       =    1.0000
 VDW_S8       =    0.7875
 VDW_A1       =    0.4289
 VDW_A2       =    4.4407
 k1-k3        =   16.0000    1.3333   -4.0000
 VDW_RADIUS   =   50.2022 A
 VDW_CNRADIUS =   21.1671 A
 Edisp (eV)   -2.31258

 E6    (eV) :    -1.3771
 E8    (eV) :    -0.9355
 % E8        : 40.45
    FORVDW:  cpu time    0.0380: real time    0.0489

  FORCE on cell =-STRESS in cart. coord.  units (eV):
  Direction    XX          YY          ZZ          XY          YZ          ZX
  --------------------------------------------------------------------------------------
  Alpha Z   160.27286   160.27286   160.27286
  Ewald    -320.93458  -308.11658 -2415.86087   -15.67943   -28.21121    18.65900
  Hartree  1154.56279  1157.70750  -639.86810    -5.38803   -10.30545     7.10501
  E(xc)    -218.07776  -218.10718  -218.13414    -0.03700    -0.02939     0.01069
  Local   -1842.42588 -1855.87887  2050.56573    16.18633    38.48421   -27.34762
  n-local   236.00381   235.97144   245.31562     0.53138    -2.44178     1.78982
  augment    -1.00950    -1.60404    -4.41674     0.31171     0.78434    -0.57848
  Kinetic   829.57847   827.96276   814.44976     5.57183     1.57102     0.50880
  Fock        0.00000     0.00000     0.00000     0.00000     0.00000     0.00000
  vdW        -2.37014    -2.36932    -2.29960    -0.00286     0.01775    -0.01260
  -------------------------------------------------------------------------------------
  Total      -4.39994    -4.16144    -9.97549     1.49392    -0.13052     0.13461
  in kB     -59.70842   -56.47188  -135.37020    20.27293    -1.77114     1.82668
  external pressure =      -83.85 kB  Pullay stress =        0.00 kB


 VOLUME and BASIS-vectors are now :
 -----------------------------------------------------------------------------
  energy-cutoff  :      500.00
  volume of cell :      118.07
      direct lattice vectors                 reciprocal lattice vectors
     1.596118927 -2.764559076  0.000000000     0.313259865 -0.180860668  0.000000000
     1.596118927  2.764559076  0.000000000     0.313259865  0.180860668  0.000000000
     0.000000000  0.000000000 13.378293991     0.000000000  0.000000000  0.074747946

  length of vectors
     3.192237854  3.192237854 13.378293991     0.361721335  0.361721335  0.074747946


 FORCES acting on ions
    electron-ion (+dipol)            ewald-force                    non-local-force                 convergence-correction
 -----------------------------------------------------------------------------------------------
   0.106E+02 -.162E+02 -.188E+02   -.967E+01 0.145E+02 0.171E+02   -.951E+00 0.145E+01 0.258E+01   0.448E-03 -.306E-03 -.100E-01
   -.116E+00 0.485E-01 -.900E+02   0.987E-01 -.242E-01 0.902E+02   0.787E-02 0.122E-01 -.176E+00   0.225E-04 -.597E-04 0.619E-02
   0.992E+00 -.158E+01 0.375E+03   -.107E+01 0.160E+01 -.379E+03   0.126E-01 0.490E-01 0.478E+01   -.350E-04 0.491E-04 0.131E-02
   -.974E+01 0.151E+02 -.192E+03   0.105E+02 -.160E+02 0.193E+03   -.517E+00 0.822E+00 -.366E+01   0.143E-03 -.243E-03 0.285E-02
   -.345E-01 0.233E-01 -.453E+03   -.906E-03 0.136E-02 0.458E+03   0.156E-01 -.140E-01 -.509E+01   -.145E-04 -.122E-04 0.601E-02
   -.153E+00 -.296E+00 0.375E+03   0.163E+00 -.399E-01 -.379E+03   -.787E-01 0.605E+00 0.476E+01   -.295E-04 0.583E-04 -.124E-01
 -----------------------------------------------------------------------------------------------
   0.151E+01 -.292E+01 -.319E+01   -.314E-13 0.380E-14 -.568E-13   -.151E+01 0.292E+01 0.319E+01   0.534E-03 -.514E-03 -.604E-02
 
 
 POSITION                                       TOTAL-FORCE (eV/Angst)
 -----------------------------------------------------------------------------------
      1.59612     -0.92152      3.34457        -0.056002     -0.247398      0.903913
      1.59612      0.92152     10.03372        -0.009640      0.036385      0.007733
      1.59612     -0.92152      8.46956        -0.065775      0.067963      0.533885
      2.06173     -1.62420      5.61015         0.219008     -0.136346     -2.621212
      1.59612     -0.92152     11.59788        -0.019777      0.010670     -0.325505
      1.59612      0.92152      1.78041        -0.067814      0.268726      1.501187
 -----------------------------------------------------------------------------------
    total drift:                               -0.000062      0.000157      0.000113


--------------------------------------------------------------------------------------------------------



  FREE ENERGIE OF THE ION-ELECTRON SYSTEM (eV)
  ---------------------------------------------------
  free  energy   TOTEN  =       -43.90021899 eV

  energy  without entropy=      -43.89810305  energy(sigma->0) =      -43.89916102
 


--------------------------------------------------------------------------------------------------------


    POTLOK:  cpu time    0.0602: real time    0.0602


--------------------------------------------------------------------------------------------------------


 stress matrix after NEB project (eV)
     -4.39994      1.49392      0.13461
      1.49392     -4.16144     -0.13052
      0.13461     -0.13052     -9.97549
  FORCES: max atom, RMS     2.633877    1.326084
  FORCE total and by dimension    3.248230    2.621212
  Stress total and by dimension   11.862605    9.975492
 writing wavefunctions
     LOOP+:  cpu time    9.5676: real time    9.7526
    4ORBIT:  cpu time    0.0000: real time    0.0000

 total amount of memory used by VASP MPI-rank0    38677. kBytes
=======================================================================

   base      :      30000. kBytes
   nonl-proj :       1371. kBytes
   fftplans  :       2330. kBytes
   grid      :       3750. kBytes
   one-center:         31. kBytes
   wavefun   :       1195. kBytes
 
  
  
 General timing and accounting informations for this job:
 ========================================================
  
                  Total CPU time used (sec):       11.176
                            User time (sec):       10.299
                          System time (sec):        0.877
                         Elapsed time (sec):       12.138
  
                   Maximum memory used (kb):      138340.
                   Average memory used (kb):          N/A
  
                          Minor page faults:        27471
                          Major page faults:          112
                 Voluntary context switches:         1180
