 vasp.6.2.0 18Jan21 (build Jul 31 2023 14:19:35) complex                        
  
 executed on             LinuxIFC date 2025.09.17  12:28:08
 running on    8 total cores
 distrk:  each k-point on    8 cores,    1 groups
 distr:  one band on NCORE=   4 cores,    2 groups


--------------------------------------------------------------------------------------------------------


 INCAR:
   SYSTEM = MoS2_SinglePoint_vdW_Coulomb
   PREC = Accurate
   ENCUT = 500
   GGA = PE
   ALGO = Normal
   NELM = 100
   NELMIN = 5
   EDIFF = 1E-6
   ISMEAR = 0
   SIGMA = 0.05
   IBRION = -1
   NSW = 0
   IVDW = 12
   LREAL = .FALSE.
   LCHARG = .TRUE.
   LWAVE = .TRUE.
   NWRITE = 1
   NCORE = 4

 POTCAR:    PAW_PBE Mo_sv 02Feb2006               
 POTCAR:    PAW_PBE S 06Sep2000                   
 POTCAR:    PAW_PBE Mo_sv 02Feb2006               
  local pseudopotential read in
  partial core-charges read in
  partial kinetic energy density read in
  atomic valenz-charges read in
  non local Contribution for L=           0  read in
    real space projection operators read in
  non local Contribution for L=           0  read in
    real space projection operators read in
  non local Contribution for L=           1  read in
    real space projection operators read in
  non local Contribution for L=           1  read in
    real space projection operators read in
  non local Contribution for L=           2  read in
    real space projection operators read in
  non local Contribution for L=           2  read in
    real space projection operators read in
    PAW grid and wavefunctions read in
 
   number of l-projection  operators is LMAX  =           6
   number of lm-projection operators is LMMAX =          18
 
 POTCAR:    PAW_PBE S 06Sep2000                   
  local pseudopotential read in
  partial core-charges read in
  partial kinetic energy density read in
  atomic valenz-charges read in
  non local Contribution for L=           0  read in
    real space projection operators read in
  non local Contribution for L=           0  read in
    real space projection operators read in
  non local Contribution for L=           1  read in
    real space projection operators read in
  non local Contribution for L=           1  read in
    real space projection operators read in
    PAW grid and wavefunctions read in
 
   number of l-projection  operators is LMAX  =           4
   number of lm-projection operators is LMMAX =           8
 
  PAW_PBE Mo_sv 02Feb2006               :
 energy of atom  1       EATOM=-1862.2866
 kinetic energy error for atom=    0.0074 (will be added to EATOM!!)
  PAW_PBE S 06Sep2000                   :
 energy of atom  2       EATOM= -276.8230
 kinetic energy error for atom=    0.0020 (will be added to EATOM!!)
 
 
 POSCAR: Mo S
  positions in direct lattice
  No initial velocities read in
 exchange correlation table for  LEXCH =        8
   RHO(1)=    0.500       N(1)  =     2000
   RHO(2)=  100.500       N(2)  =     4000

 VTST: version 4.0, (05/15/20)

 CHAIN: initializing optimizer
 
 OPT: Using VASP Dynamics algorithm
 CHAIN: Read ICHAIN            0
 
 POSCAR: Mo S
  positions in direct lattice
  No initial velocities read in
 


--------------------------------------------------------------------------------------------------------


 ion  position               nearest neighbor table
   1  0.667  0.333  0.250-   4 2.15   6 2.42   6 2.42   6 2.42   4 2.42   4 3.00
   2  0.333  0.667  0.750-   3 2.42   5 2.42   3 2.42   5 2.42   3 2.42   5 2.42
   3  0.667  0.333  0.633-   2 2.42   2 2.42   2 2.42
   4  0.578  0.848  0.371-   1 2.15   1 2.42   1 3.00
   5  0.667  0.333  0.867-   2 2.42   2 2.42   2 2.42
   6  0.333  0.667  0.133-   1 2.42   1 2.42   1 2.42
 
  LATTYP: Found a hexagonal cell.
 ALAT       =     3.1922378540
 C/A-ratio  =     4.1908825730
  
  Lattice vectors:
  
 A1 = (   1.5961189270,  -2.7645590765,   0.0000000000)
 A2 = (   1.5961189270,   2.7645590765,   0.0000000000)
 A3 = (   0.0000000000,   0.0000000000,  13.3782939911)


Analysis of symmetry for initial positions (statically):
=====================================================================
 Subroutine PRICEL returns:
 Original cell was already a primitive cell.
 

 Routine SETGRP: Setting up the symmetry group for a 
 hexagonal supercell.


 Subroutine GETGRP returns: Found  1 space group operations
 (whereof  1 operations were pure point group operations)
 out of a pool of 24 trial point group operations.


The static configuration has the point symmetry C_1 .


Analysis of symmetry for dynamics (positions and initial velocities):
=====================================================================
 Subroutine PRICEL returns:
 Original cell was already a primitive cell.
 

 Routine SETGRP: Setting up the symmetry group for a 
 hexagonal supercell.


 Subroutine GETGRP returns: Found  1 space group operations
 (whereof  1 operations were pure point group operations)
 out of a pool of 24 trial point group operations.


The dynamic configuration has the point symmetry C_1 .


 Subroutine INISYM returns: Found  1 space group operations
 (whereof  1 operations are pure point group operations),
 and found     1 'primitive' translations


----------------------------------------------------------------------------------------

                                     Primitive cell                                     

  volume of cell :     118.0652

  direct lattice vectors                    reciprocal lattice vectors
     1.596118927 -2.764559076  0.000000000     0.313259865 -0.180860668  0.000000000
     1.596118927  2.764559076  0.000000000     0.313259865  0.180860668  0.000000000
     0.000000000  0.000000000 13.378293991     0.000000000  0.000000000  0.074747946

  length of vectors
     3.192237854  3.192237854 13.378293991     0.361721335  0.361721335  0.074747946

  position of ions in fractional coordinates (direct lattice)
     0.666666667  0.333333333  0.250000000
     0.333333333  0.666666667  0.750000000
     0.666666667  0.333333333  0.633082000
     0.578361609  0.848092329  0.370539296
     0.666666667  0.333333333  0.866918000
     0.333333333  0.666666667  0.133082000

  ion indices of the primitive-cell ions
   primitive index   ion index
                 1           1
                 2           2
                 3           3
                 4           4
                 5           5
                 6           6

----------------------------------------------------------------------------------------

 
 
 KPOINTS: K-Spacing Value to Generate K-Mesh: 0.15

Automatic generation of k-mesh.
 Grid dimensions read from file:
 generate k-points for:    2    2    1

 Generating k-lattice:

  Cartesian coordinates                     Fractional coordinates (reciprocal lattice)
     0.156629933 -0.090430334  0.000000000     0.500000000  0.000000000  0.000000000
     0.156629933  0.090430334  0.000000000     0.000000000  0.500000000  0.000000000
     0.000000000  0.000000000  0.074747946     0.000000000  0.000000000  1.000000000

  Length of vectors
     0.180860668  0.180860668  0.074747946

  Shift w.r.t. Gamma in fractional coordinates (k-lattice)
     0.500000000  0.500000000  0.000000000

 
 Subroutine IBZKPT returns following result:
 ===========================================
 
 Found      6 irreducible k-points:
 
 Following reciprocal coordinates:
            Coordinates               Weight
  0.250000  0.250000  0.000000      2.000000
 -0.250000  0.500000  0.000000      2.000000
  0.500000  0.250000  0.000000      2.000000
 -0.250000  0.250000  0.000000      2.000000
 -0.250000  0.000000  0.000000      2.000000
  0.000000 -0.250000  0.000000      2.000000
 
 Following cartesian coordinates:
            Coordinates               Weight
  0.156630  0.000000  0.000000      2.000000
  0.078315  0.135646  0.000000      2.000000
  0.234945 -0.045215  0.000000      2.000000
  0.000000  0.090430  0.000000      2.000000
 -0.078315  0.045215  0.000000      2.000000
 -0.078315 -0.045215  0.000000      2.000000
 


--------------------------------------------------------------------------------------------------------




 Dimension of arrays:
   k-points           NKPTS =      6   k-points in BZ     NKDIM =      6   number of bands    NBANDS=     32
   number of dos      NEDOS =    301   number of ions     NIONS =      6
   non local maximal  LDIM  =      6   non local SUM 2l+1 LMDIM =     18
   total plane-waves  NPLWV =  56448
   max r-space proj   IRMAX =      1   max aug-charges    IRDMAX=  21106
   dimension x,y,z NGX =    24 NGY =   24 NGZ =   98
   dimension x,y,z NGXF=    48 NGYF=   48 NGZF=  196
   support grid    NGXF=    48 NGYF=   48 NGZF=  196
   ions per type =               2   4
   NGX,Y,Z   is equivalent  to a cutoff of  12.50, 12.50, 12.18 a.u.
   NGXF,Y,Z  is equivalent  to a cutoff of  25.00, 25.00, 24.36 a.u.

 SYSTEM =  MoS2_SinglePoint_vdW_Coulomb           
 POSCAR =  Mo S                                    

 Startparameter for this run:
   NWRITE =      1    write-flag & timer
   PREC   = accura    normal or accurate (medium, high low for compatibility)
   ISTART =      0    job   : 0-new  1-cont  2-samecut
   ICHARG =      2    charge: 1-file 2-atom 10-const
   ISPIN  =      1    spin polarized calculation?
   LNONCOLLINEAR =      F non collinear calculations
   LSORBIT =      F    spin-orbit coupling
   INIWAV =      1    electr: 0-lowe 1-rand  2-diag
   LASPH  =      F    aspherical Exc in radial PAW
   METAGGA=      F    non-selfconsistent MetaGGA calc.

 Electronic Relaxation 1
   ENCUT  =  500.0 eV  36.75 Ry    6.06 a.u.   5.82  5.82 24.39*2*pi/ulx,y,z
   ENINI  =  500.0     initial cutoff
   ENAUG  =  446.0 eV  augmentation charge cutoff
   NELM   =    100;   NELMIN=  5; NELMDL= -5     # of ELM steps 
   EDIFF  = 0.1E-05   stopping-criterion for ELM
   LREAL  =      F    real-space projection
   NLSPLINE    = F    spline interpolate recip. space projectors
   LCOMPAT=      F    compatible to vasp.4.4
   GGA_COMPAT  = T    GGA compatible to vasp.4.4-vasp.4.6
   LMAXPAW     = -100 max onsite density
   LMAXMIX     =    2 max onsite mixed and CHGCAR
   VOSKOWN=      0    Vosko Wilk Nusair interpolation
   ROPT   =    0.00000   0.00000
 Ionic relaxation
   EDIFFG = 0.1E-04   stopping-criterion for IOM
   NSW    =      0    number of steps for IOM
   NBLOCK =      1;   KBLOCK =      1    inner block; outer block 
   IBRION =     -1    ionic relax: 0-MD 1-quasi-New 2-CG
   NFREE  =      0    steps in history (QN), initial steepest desc. (CG)
   ISIF   =      2    stress and relaxation
   IWAVPR =     10    prediction:  0-non 1-charg 2-wave 3-comb
   ISYM   =      2    0-nonsym 1-usesym 2-fastsym
   LCORR  =      T    Harris-Foulkes like correction to forces

   POTIM  = 0.5000    time-step for ionic-motion
   TEIN   =    0.0    initial temperature
   TEBEG  =    0.0;   TEEND  =   0.0 temperature during run
   SMASS  =  -3.00    Nose mass-parameter (am)
   estimated Nose-frequenzy (Omega)   =  0.10E-29 period in steps = 0.13E+47 mass=  -0.233E-27a.u.
   SCALEE = 1.0000    scale energy and forces
   NPACO  =    256;   APACO  = 16.0  distance and # of slots for P.C.
   PSTRESS=    0.0 pullay stress

  Mass of Ions in am
   POMASS =  95.94 32.07
  Ionic Valenz
   ZVAL   =  14.00  6.00
  Atomic Wigner-Seitz radii
   RWIGS  =  -1.00 -1.00
  virtual crystal weights 
   VCA    =   1.00  1.00
   NELECT =      52.0000    total number of electrons
   NUPDOWN=      -1.0000    fix difference up-down

 DOS related values:
   EMIN   =  10.00;   EMAX   =-10.00  energy-range for DOS
   EFERMI =   0.00
   ISMEAR =     0;   SIGMA  =   0.05  broadening in eV -4-tet -1-fermi 0-gaus

 Electronic relaxation 2 (details)
   IALGO  =     38    algorithm
   LDIAG  =      T    sub-space diagonalisation (order eigenvalues)
   LSUBROT=      F    optimize rotation matrix (better conditioning)
   TURBO    =      0    0=normal 1=particle mesh
   IRESTART =      0    0=no restart 2=restart with 2 vectors
   NREBOOT  =      0    no. of reboots
   NMIN     =      0    reboot dimension
   EREF     =   0.00    reference energy to select bands
   IMIX   =      4    mixing-type and parameters
     AMIX     =   0.40;   BMIX     =  1.00
     AMIX_MAG =   1.60;   BMIX_MAG =  1.00
     AMIN     =   0.10
     WC   =   100.;   INIMIX=   1;  MIXPRE=   1;  MAXMIX= -45

 Intra band minimization:
   WEIMIN = 0.0000     energy-eigenvalue tresh-hold
   EBREAK =  0.78E-08  absolut break condition
   DEPER  =   0.30     relativ break condition  

   TIME   =   0.40     timestep for ELM

  volume/ion in A,a.u.               =      19.68       132.79
  Fermi-wavevector in a.u.,A,eV,Ry     =   1.245571  2.353789 21.108736  1.551448
  Thomas-Fermi vector in A             =   2.379788
 
 Write flags
   LWAVE        =      T    write WAVECAR
   LDOWNSAMPLE  =      F    k-point downsampling of WAVECAR
   LCHARG       =      T    write CHGCAR
   LVTOT        =      F    write LOCPOT, total local potential
   LVHAR        =      F    write LOCPOT, Hartree potential only
   LELF         =      F    write electronic localiz. function (ELF)
   LORBIT       =      0    0 simple, 1 ext, 2 COOP (PROOUT), +10 PAW based schemes


 Dipole corrections
   LMONO  =      F    monopole corrections only (constant potential shift)
   LDIPOL =      F    correct potential (dipole corrections)
   IDIPOL =      0    1-x, 2-y, 3-z, 4-all directions 
   EPSILON=  1.0000000 bulk dielectric constant

 Exchange correlation treatment:
   GGA     =    PE    GGA type
   LEXCH   =     8    internal setting for exchange type
   VOSKOWN=      0    Vosko Wilk Nusair interpolation
   LHFCALC =     F    Hartree Fock is set to
   LHFONE  =     F    Hartree Fock one center treatment
   AEXX    =    0.0000 exact exchange contribution

 Linear response parameters
   LEPSILON=     F    determine dielectric tensor
   LRPA    =     F    only Hartree local field effects (RPA)
   LNABLA  =     F    use nabla operator in PAW spheres
   LVEL    =     F    velocity operator in full k-point grid
   LINTERFAST=   F  fast interpolation
   KINTER  =     0    interpolate to denser k-point grid
   CSHIFT  =0.1000    complex shift for real part using Kramers Kronig
   OMEGAMAX=  -1.0    maximum frequency
   DEG_THRESHOLD= 0.2000000E-02 threshold for treating states as degnerate
   RTIME   =   -0.100 relaxation time in fs
  (WPLASMAI=    0.000 imaginary part of plasma frequency in eV, 0.658/RTIME)
   DFIELD  = 0.0000000 0.0000000 0.0000000 field for delta impulse in time
 
 Orbital magnetization related:
   ORBITALMAG=     F  switch on orbital magnetization
   LCHIMAG   =     F  perturbation theory with respect to B field
   DQ        =  0.001000  dq finite difference perturbation B field
   LLRAUG    =     F  two centre corrections for induced B field



--------------------------------------------------------------------------------------------------------


 Static calculation
 charge density and potential will be updated during run
 non-spin polarized calculation
 Variant of blocked Davidson
 Davidson routine will perform the subspace rotation
 perform sub-space diagonalisation
    after iterative eigenvector-optimisation
 modified Broyden-mixing scheme, WC =      100.0
 initial mixing is a Kerker type mixing with AMIX =  0.4000 and BMIX =      1.0000
 Hartree-type preconditioning will be used
 using additional bands            6
 reciprocal scheme for non local part
 use partial core corrections
 calculate Harris-corrections to forces 
   (improved forces if not selfconsistent)
 use gradient corrections 
 use of overlap-Matrix (Vanderbilt PP)
 Gauss-broadening in eV      SIGMA  =   0.05


--------------------------------------------------------------------------------------------------------


  energy-cutoff  :      500.00
  volume of cell :      118.07
      direct lattice vectors                 reciprocal lattice vectors
     1.596118927 -2.764559076  0.000000000     0.313259865 -0.180860668  0.000000000
     1.596118927  2.764559076  0.000000000     0.313259865  0.180860668  0.000000000
     0.000000000  0.000000000 13.378293991     0.000000000  0.000000000  0.074747946

  length of vectors
     3.192237854  3.192237854 13.378293991     0.361721335  0.361721335  0.074747946


 
 k-points in units of 2pi/SCALE and weight: K-Spacing Value to Generate K-Mesh: 0.15
   0.15662993  0.00000000  0.00000000       0.167
   0.07831497  0.13564550  0.00000000       0.167
   0.23494490 -0.04521517  0.00000000       0.167
   0.00000000  0.09043033  0.00000000       0.167
  -0.07831497  0.04521517  0.00000000       0.167
  -0.07831497 -0.04521517  0.00000000       0.167
 
 k-points in reciprocal lattice and weights: K-Spacing Value to Generate K-Mesh: 0.15
   0.25000000  0.25000000  0.00000000       0.167
  -0.25000000  0.50000000  0.00000000       0.167
   0.50000000  0.25000000  0.00000000       0.167
  -0.25000000  0.25000000  0.00000000       0.167
  -0.25000000  0.00000000  0.00000000       0.167
   0.00000000 -0.25000000  0.00000000       0.167
 
 position of ions in fractional coordinates (direct lattice) 
   0.66666667  0.33333333  0.25000000
   0.33333333  0.66666667  0.75000000
   0.66666667  0.33333333  0.63308200
   0.57836161  0.84809233  0.37053930
   0.66666667  0.33333333  0.86691800
   0.33333333  0.66666667  0.13308200
 
 position of ions in cartesian coordinates  (Angst):
   1.59611893 -0.92151969  3.34457350
   1.59611893  0.92151969 10.03372049
   1.59611893 -0.92151969  8.46955712
   2.27679013  0.74568651  4.95718363
   1.59611893 -0.92151969 11.59788387
   1.59611893  0.92151969  1.78041012
 


--------------------------------------------------------------------------------------------------------


 k-point   1 :   0.2500 0.2500 0.0000  plane waves:    3020
 k-point   2 :  -0.2500 0.5000 0.0000  plane waves:    3020
 k-point   3 :   0.5000 0.2500 0.0000  plane waves:    3020
 k-point   4 :  -0.2500 0.2500 0.0000  plane waves:    2992
 k-point   5 :  -0.2500 0.0000 0.0000  plane waves:    2992
 k-point   6 :   0.0000-0.2500 0.0000  plane waves:    2992

 maximum and minimum number of plane-waves per node :       767      745

 maximum number of plane-waves:      3020
 maximum index in each direction: 
   IXMAX=    6   IYMAX=    6   IZMAX=   24
   IXMIN=   -6   IYMIN=   -6   IZMIN=  -24


 parallel 3D FFT for wavefunctions:
    minimum data exchange during FFTs selected (reduces bandwidth)
 parallel 3D FFT for charge:
    minimum data exchange during FFTs selected (reduces bandwidth)


 total amount of memory used by VASP MPI-rank0    38677. kBytes
=======================================================================

   base      :      30000. kBytes
   nonl-proj :       1371. kBytes
   fftplans  :       2330. kBytes
   grid      :       3750. kBytes
   one-center:         31. kBytes
   wavefun   :       1195. kBytes
 
     INWAV:  cpu time    0.0000: real time    0.0000
 Broyden mixing: mesh for mixing (old mesh)
   NGX = 11   NGY = 11   NGZ = 49
  (NGX  = 48   NGY  = 48   NGZ  =196)
  gives a total of   5929 points

 initial charge density was supplied:
 charge density of overlapping atoms calculated
 number of electron      52.0000000 magnetization 
 keeping initial charge density in first step


--------------------------------------------------------------------------------------------------------


 Maximum index for augmentation-charges         2591 (set IRDMAX)


--------------------------------------------------------------------------------------------------------


 First call to EWALD:  gamma=   0.361
 Maximum number of real-space cells 4x 4x 1
 Maximum number of reciprocal cells 2x 2x 7

    FEWALD:  cpu time    0.0020: real time    0.0020


--------------------------------------- Iteration      1(   1)  ---------------------------------------


    POTLOK:  cpu time    0.0562: real time    0.0573
    SETDIJ:  cpu time    0.0055: real time    0.0055
     EDDAV:  cpu time    0.3930: real time    0.3932
       DOS:  cpu time    0.0007: real time    0.0007
    --------------------------------------------
      LOOP:  cpu time    0.4554: real time    0.4567

 eigenvalue-minimisations  :   432
 total energy-change (2. order) : 0.4262462E+03  (-0.2923557E+04)
 number of electron      52.0000000 magnetization 
 augmentation part       52.0000000 magnetization 

 Free energy of the ion-electron system (eV)
  ---------------------------------------------------
  alpha Z        PSCENC =       160.27286088
  Ewald energy   TEWEN  =     -2855.51818765
  -Hartree energ DENC   =     -1887.68289413
  -exchange      EXHF   =         0.00000000
  -V(xc)+E(xc)   XCENC  =       182.76652678
  PAW double counting   =      3865.57804258    -3815.84821480
  entropy T*S    EENTRO =        -0.00870512
  eigenvalues    EBANDS =       -55.15588656
  atomic energy  EATOM  =      4831.84262874
  Solvation  Ediel_sol  =         0.00000000
  ---------------------------------------------------
  free energy    TOTEN  =       426.24617073 eV

  energy without entropy =      426.25487584  energy(sigma->0) =      426.25052329


--------------------------------------------------------------------------------------------------------




--------------------------------------- Iteration      1(   2)  ---------------------------------------


     EDDAV:  cpu time    0.4033: real time    0.4066
       DOS:  cpu time    0.0002: real time    0.0002
    --------------------------------------------
      LOOP:  cpu time    0.4035: real time    0.4068

 eigenvalue-minimisations  :   456
 total energy-change (2. order) :-0.4474479E+03  (-0.4366713E+03)
 number of electron      52.0000000 magnetization 
 augmentation part       52.0000000 magnetization 

 Free energy of the ion-electron system (eV)
  ---------------------------------------------------
  alpha Z        PSCENC =       160.27286088
  Ewald energy   TEWEN  =     -2855.51818765
  -Hartree energ DENC   =     -1887.68289413
  -exchange      EXHF   =         0.00000000
  -V(xc)+E(xc)   XCENC  =       182.76652678
  PAW double counting   =      3865.57804258    -3815.84821480
  entropy T*S    EENTRO =        -0.00000000
  eigenvalues    EBANDS =      -502.61252939
  atomic energy  EATOM  =      4831.84262874
  Solvation  Ediel_sol  =         0.00000000
  ---------------------------------------------------
  free energy    TOTEN  =       -21.20176698 eV

  energy without entropy =      -21.20176698  energy(sigma->0) =      -21.20176698


--------------------------------------------------------------------------------------------------------




--------------------------------------- Iteration      1(   3)  ---------------------------------------


     EDDAV:  cpu time    0.4265: real time    0.4311
       DOS:  cpu time    0.0002: real time    0.0002
    --------------------------------------------
      LOOP:  cpu time    0.4267: real time    0.4313

 eigenvalue-minimisations  :   480
 total energy-change (2. order) :-0.2394518E+02  (-0.2366107E+02)
 number of electron      52.0000000 magnetization 
 augmentation part       52.0000000 magnetization 

 Free energy of the ion-electron system (eV)
  ---------------------------------------------------
  alpha Z        PSCENC =       160.27286088
  Ewald energy   TEWEN  =     -2855.51818765
  -Hartree energ DENC   =     -1887.68289413
  -exchange      EXHF   =         0.00000000
  -V(xc)+E(xc)   XCENC  =       182.76652678
  PAW double counting   =      3865.57804258    -3815.84821480
  entropy T*S    EENTRO =        -0.00000000
  eigenvalues    EBANDS =      -526.55771214
  atomic energy  EATOM  =      4831.84262874
  Solvation  Ediel_sol  =         0.00000000
  ---------------------------------------------------
  free energy    TOTEN  =       -45.14694973 eV

  energy without entropy =      -45.14694973  energy(sigma->0) =      -45.14694973


--------------------------------------------------------------------------------------------------------




--------------------------------------- Iteration      1(   4)  ---------------------------------------


     EDDAV:  cpu time    0.4110: real time    0.4137
       DOS:  cpu time    0.0002: real time    0.0002
    --------------------------------------------
      LOOP:  cpu time    0.4112: real time    0.4139

 eigenvalue-minimisations  :   464
 total energy-change (2. order) :-0.7055581E+00  (-0.7020319E+00)
 number of electron      52.0000000 magnetization 
 augmentation part       52.0000000 magnetization 

 Free energy of the ion-electron system (eV)
  ---------------------------------------------------
  alpha Z        PSCENC =       160.27286088
  Ewald energy   TEWEN  =     -2855.51818765
  -Hartree energ DENC   =     -1887.68289413
  -exchange      EXHF   =         0.00000000
  -V(xc)+E(xc)   XCENC  =       182.76652678
  PAW double counting   =      3865.57804258    -3815.84821480
  entropy T*S    EENTRO =        -0.00000000
  eigenvalues    EBANDS =      -527.26327020
  atomic energy  EATOM  =      4831.84262874
  Solvation  Ediel_sol  =         0.00000000
  ---------------------------------------------------
  free energy    TOTEN  =       -45.85250779 eV

  energy without entropy =      -45.85250779  energy(sigma->0) =      -45.85250779


--------------------------------------------------------------------------------------------------------




--------------------------------------- Iteration      1(   5)  ---------------------------------------


     EDDAV:  cpu time    0.4113: real time    0.4148
       DOS:  cpu time    0.0002: real time    0.0002
    CHARGE:  cpu time    0.0367: real time    0.0367
    MIXING:  cpu time    0.0014: real time    0.0014
    --------------------------------------------
      LOOP:  cpu time    0.4495: real time    0.4530

 eigenvalue-minimisations  :   464
 total energy-change (2. order) :-0.1805877E-01  (-0.1805016E-01)
 number of electron      51.9999993 magnetization 
 augmentation part        0.7233625 magnetization 

 Broyden mixing:
  rms(total) = 0.33772E+01    rms(broyden)= 0.33772E+01
  rms(prec ) = 0.34712E+01
  weight for this iteration     100.00

 Free energy of the ion-electron system (eV)
  ---------------------------------------------------
  alpha Z        PSCENC =       160.27286088
  Ewald energy   TEWEN  =     -2855.51818765
  -Hartree energ DENC   =     -1887.68289413
  -exchange      EXHF   =         0.00000000
  -V(xc)+E(xc)   XCENC  =       182.76652678
  PAW double counting   =      3865.57804258    -3815.84821480
  entropy T*S    EENTRO =        -0.00000000
  eigenvalues    EBANDS =      -527.28132896
  atomic energy  EATOM  =      4831.84262874
  Solvation  Ediel_sol  =         0.00000000
  ---------------------------------------------------
  free energy    TOTEN  =       -45.87056656 eV

  energy without entropy =      -45.87056656  energy(sigma->0) =      -45.87056656


--------------------------------------------------------------------------------------------------------




--------------------------------------- Iteration      1(   6)  ---------------------------------------


    POTLOK:  cpu time    0.0555: real time    0.0600
    SETDIJ:  cpu time    0.0054: real time    0.0054
     EDDAV:  cpu time    0.3554: real time    0.3554
       DOS:  cpu time    0.0002: real time    0.0002
    CHARGE:  cpu time    0.0360: real time    0.0360
    MIXING:  cpu time    0.0014: real time    0.0014
    --------------------------------------------
      LOOP:  cpu time    0.4539: real time    0.4584

 eigenvalue-minimisations  :   384
 total energy-change (2. order) : 0.2042468E+01  (-0.2075946E+01)
 number of electron      51.9999991 magnetization 
 augmentation part        1.9794646 magnetization 

 Broyden mixing:
  rms(total) = 0.13190E+01    rms(broyden)= 0.13190E+01
  rms(prec ) = 0.14372E+01
  weight for this iteration     100.00

 eigenvalues of (default mixing * dielectric matrix)
  average eigenvalue GAMMA=   1.1075
  1.1075

 Free energy of the ion-electron system (eV)
  ---------------------------------------------------
  alpha Z        PSCENC =       160.27286088
  Ewald energy   TEWEN  =     -2855.51818765
  -Hartree energ DENC   =     -1830.72570320
  -exchange      EXHF   =         0.00000000
  -V(xc)+E(xc)   XCENC  =       181.20070326
  PAW double counting   =      4586.21061670    -4543.27671444
  entropy T*S    EENTRO =        -0.00000000
  eigenvalues    EBANDS =      -573.83430249
  atomic energy  EATOM  =      4831.84262874
  Solvation  Ediel_sol  =         0.00000000
  ---------------------------------------------------
  free energy    TOTEN  =       -43.82809819 eV

  energy without entropy =      -43.82809819  energy(sigma->0) =      -43.82809819


--------------------------------------------------------------------------------------------------------




--------------------------------------- Iteration      1(   7)  ---------------------------------------


    POTLOK:  cpu time    0.0550: real time    0.0587
    SETDIJ:  cpu time    0.0054: real time    0.0053
     EDDAV:  cpu time    0.3584: real time    0.3591
       DOS:  cpu time    0.0003: real time    0.0003
    CHARGE:  cpu time    0.0363: real time    0.0363
    MIXING:  cpu time    0.0014: real time    0.0014
    --------------------------------------------
      LOOP:  cpu time    0.4567: real time    0.4612

 eigenvalue-minimisations  :   384
 total energy-change (2. order) : 0.4569662E+00  (-0.1016435E+01)
 number of electron      51.9999992 magnetization 
 augmentation part        1.2445824 magnetization 

 Broyden mixing:
  rms(total) = 0.86661E+00    rms(broyden)= 0.86661E+00
  rms(prec ) = 0.94778E+00
  weight for this iteration     100.00

 eigenvalues of (default mixing * dielectric matrix)
  average eigenvalue GAMMA=   1.1889
  1.7623  0.6155

 Free energy of the ion-electron system (eV)
  ---------------------------------------------------
  alpha Z        PSCENC =       160.27286088
  Ewald energy   TEWEN  =     -2855.51818765
  -Hartree energ DENC   =     -1872.43833343
  -exchange      EXHF   =         0.00000000
  -V(xc)+E(xc)   XCENC  =       181.89300058
  PAW double counting   =      5183.75796762    -5139.12458006
  entropy T*S    EENTRO =        -0.00000000
  eigenvalues    EBANDS =      -534.05648864
  atomic energy  EATOM  =      4831.84262874
  Solvation  Ediel_sol  =         0.00000000
  ---------------------------------------------------
  free energy    TOTEN  =       -43.37113196 eV

  energy without entropy =      -43.37113196  energy(sigma->0) =      -43.37113196


--------------------------------------------------------------------------------------------------------




--------------------------------------- Iteration      1(   8)  ---------------------------------------


    POTLOK:  cpu time    0.0550: real time    0.0588
    SETDIJ:  cpu time    0.0055: real time    0.0055
     EDDAV:  cpu time    0.3867: real time    0.3867
       DOS:  cpu time    0.0002: real time    0.0002
    CHARGE:  cpu time    0.0359: real time    0.0359
    MIXING:  cpu time    0.0014: real time    0.0014
    --------------------------------------------
      LOOP:  cpu time    0.4847: real time    0.4885

 eigenvalue-minimisations  :   432
 total energy-change (2. order) : 0.4597867E+00  (-0.1924928E+00)
 number of electron      51.9999991 magnetization 
 augmentation part        1.5265645 magnetization 

 Broyden mixing:
  rms(total) = 0.31531E+00    rms(broyden)= 0.31531E+00
  rms(prec ) = 0.32163E+00
  weight for this iteration     100.00

 eigenvalues of (default mixing * dielectric matrix)
  average eigenvalue GAMMA=   1.2205
  2.2706  0.8317  0.5594

 Free energy of the ion-electron system (eV)
  ---------------------------------------------------
  alpha Z        PSCENC =       160.27286088
  Ewald energy   TEWEN  =     -2855.51818765
  -Hartree energ DENC   =     -1854.12290566
  -exchange      EXHF   =         0.00000000
  -V(xc)+E(xc)   XCENC  =       181.48070065
  PAW double counting   =      5666.26570006    -5623.92208796
  entropy T*S    EENTRO =        -0.00000000
  eigenvalues    EBANDS =      -549.21005434
  atomic energy  EATOM  =      4831.84262874
  Solvation  Ediel_sol  =         0.00000000
  ---------------------------------------------------
  free energy    TOTEN  =       -42.91134529 eV

  energy without entropy =      -42.91134529  energy(sigma->0) =      -42.91134529


--------------------------------------------------------------------------------------------------------




--------------------------------------- Iteration      1(   9)  ---------------------------------------


    POTLOK:  cpu time    0.0548: real time    0.0581
    SETDIJ:  cpu time    0.0053: real time    0.0053
     EDDAV:  cpu time    0.4151: real time    0.4156
       DOS:  cpu time    0.0003: real time    0.0002
    CHARGE:  cpu time    0.0364: real time    0.0364
    MIXING:  cpu time    0.0015: real time    0.0015
    --------------------------------------------
      LOOP:  cpu time    0.5134: real time    0.5172

 eigenvalue-minimisations  :   464
 total energy-change (2. order) :-0.7701937E-02  (-0.2466622E-01)
 number of electron      51.9999991 magnetization 
 augmentation part        1.6076676 magnetization 

 Broyden mixing:
  rms(total) = 0.11794E+00    rms(broyden)= 0.11794E+00
  rms(prec ) = 0.13117E+00
  weight for this iteration     100.00

 eigenvalues of (default mixing * dielectric matrix)
  average eigenvalue GAMMA=   1.1713
  2.3536  1.1061  0.6127  0.6127

 Free energy of the ion-electron system (eV)
  ---------------------------------------------------
  alpha Z        PSCENC =       160.27286088
  Ewald energy   TEWEN  =     -2855.51818765
  -Hartree energ DENC   =     -1852.28066877
  -exchange      EXHF   =         0.00000000
  -V(xc)+E(xc)   XCENC  =       181.44550068
  PAW double counting   =      5896.62909476    -5854.84943544
  entropy T*S    EENTRO =        -0.00000000
  eigenvalues    EBANDS =      -550.46084042
  atomic energy  EATOM  =      4831.84262874
  Solvation  Ediel_sol  =         0.00000000
  ---------------------------------------------------
  free energy    TOTEN  =       -42.91904723 eV

  energy without entropy =      -42.91904723  energy(sigma->0) =      -42.91904723


--------------------------------------------------------------------------------------------------------




--------------------------------------- Iteration      1(  10)  ---------------------------------------


    POTLOK:  cpu time    0.0553: real time    0.0586
    SETDIJ:  cpu time    0.0054: real time    0.0054
     EDDAV:  cpu time    0.4141: real time    0.4141
       DOS:  cpu time    0.0002: real time    0.0002
    CHARGE:  cpu time    0.0359: real time    0.0359
    MIXING:  cpu time    0.0015: real time    0.0015
    --------------------------------------------
      LOOP:  cpu time    0.5124: real time    0.5157

 eigenvalue-minimisations  :   472
 total energy-change (2. order) : 0.7750354E-02  (-0.3393410E-02)
 number of electron      51.9999991 magnetization 
 augmentation part        1.5728060 magnetization 

 Broyden mixing:
  rms(total) = 0.52636E-01    rms(broyden)= 0.52636E-01
  rms(prec ) = 0.57558E-01
  weight for this iteration     100.00

 eigenvalues of (default mixing * dielectric matrix)
  average eigenvalue GAMMA=   1.1974
  2.3210  1.6362  0.8358  0.5970  0.5970

 Free energy of the ion-electron system (eV)
  ---------------------------------------------------
  alpha Z        PSCENC =       160.27286088
  Ewald energy   TEWEN  =     -2855.51818765
  -Hartree energ DENC   =     -1854.57467908
  -exchange      EXHF   =         0.00000000
  -V(xc)+E(xc)   XCENC  =       181.51938818
  PAW double counting   =      5938.49917250    -5896.60101811
  entropy T*S    EENTRO =        -0.00000000
  eigenvalues    EBANDS =      -548.35146233
  atomic energy  EATOM  =      4831.84262874
  Solvation  Ediel_sol  =         0.00000000
  ---------------------------------------------------
  free energy    TOTEN  =       -42.91129687 eV

  energy without entropy =      -42.91129687  energy(sigma->0) =      -42.91129687


--------------------------------------------------------------------------------------------------------




--------------------------------------- Iteration      1(  11)  ---------------------------------------


    POTLOK:  cpu time    0.0548: real time    0.0583
    SETDIJ:  cpu time    0.0053: real time    0.0053
     EDDAV:  cpu time    0.3837: real time    0.3838
       DOS:  cpu time    0.0002: real time    0.0002
    CHARGE:  cpu time    0.0358: real time    0.0358
    MIXING:  cpu time    0.0015: real time    0.0015
    --------------------------------------------
      LOOP:  cpu time    0.4813: real time    0.4849

 eigenvalue-minimisations  :   424
 total energy-change (2. order) : 0.8011780E-03  (-0.1106283E-02)
 number of electron      51.9999991 magnetization 
 augmentation part        1.5506771 magnetization 

 Broyden mixing:
  rms(total) = 0.20225E-01    rms(broyden)= 0.20225E-01
  rms(prec ) = 0.21545E-01
  weight for this iteration     100.00

 eigenvalues of (default mixing * dielectric matrix)
  average eigenvalue GAMMA=   1.2451
  2.4625  2.0630  1.1122  0.6363  0.6363  0.5603

 Free energy of the ion-electron system (eV)
  ---------------------------------------------------
  alpha Z        PSCENC =       160.27286088
  Ewald energy   TEWEN  =     -2855.51818765
  -Hartree energ DENC   =     -1855.80453520
  -exchange      EXHF   =         0.00000000
  -V(xc)+E(xc)   XCENC  =       181.56312566
  PAW double counting   =      5932.95952770    -5890.94398574
  entropy T*S    EENTRO =        -0.00000000
  eigenvalues    EBANDS =      -547.28193008
  atomic energy  EATOM  =      4831.84262874
  Solvation  Ediel_sol  =         0.00000000
  ---------------------------------------------------
  free energy    TOTEN  =       -42.91049569 eV

  energy without entropy =      -42.91049569  energy(sigma->0) =      -42.91049569


--------------------------------------------------------------------------------------------------------




--------------------------------------- Iteration      1(  12)  ---------------------------------------


    POTLOK:  cpu time    0.0550: real time    0.0579
    SETDIJ:  cpu time    0.0053: real time    0.0053
     EDDAV:  cpu time    0.4085: real time    0.4086
       DOS:  cpu time    0.0002: real time    0.0002
    CHARGE:  cpu time    0.0357: real time    0.0357
    MIXING:  cpu time    0.0016: real time    0.0016
    --------------------------------------------
      LOOP:  cpu time    0.5064: real time    0.5093

 eigenvalue-minimisations  :   464
 total energy-change (2. order) :-0.5625701E-04  (-0.7849255E-04)
 number of electron      51.9999991 magnetization 
 augmentation part        1.5546396 magnetization 

 Broyden mixing:
  rms(total) = 0.82831E-02    rms(broyden)= 0.82830E-02
  rms(prec ) = 0.88426E-02
  weight for this iteration     100.00

 eigenvalues of (default mixing * dielectric matrix)
  average eigenvalue GAMMA=   1.2109
  2.3262  2.3262  1.1895  0.7259  0.7259  0.5913  0.5913

 Free energy of the ion-electron system (eV)
  ---------------------------------------------------
  alpha Z        PSCENC =       160.27286088
  Ewald energy   TEWEN  =     -2855.51818765
  -Hartree energ DENC   =     -1855.90641631
  -exchange      EXHF   =         0.00000000
  -V(xc)+E(xc)   XCENC  =       181.57231284
  PAW double counting   =      5935.43057697    -5893.41659268
  entropy T*S    EENTRO =        -0.00000000
  eigenvalues    EBANDS =      -547.18773474
  atomic energy  EATOM  =      4831.84262874
  Solvation  Ediel_sol  =         0.00000000
  ---------------------------------------------------
  free energy    TOTEN  =       -42.91055195 eV

  energy without entropy =      -42.91055195  energy(sigma->0) =      -42.91055195


--------------------------------------------------------------------------------------------------------




--------------------------------------- Iteration      1(  13)  ---------------------------------------


    POTLOK:  cpu time    0.0547: real time    0.0584
    SETDIJ:  cpu time    0.0053: real time    0.0053
     EDDAV:  cpu time    0.4002: real time    0.4004
       DOS:  cpu time    0.0002: real time    0.0002
    CHARGE:  cpu time    0.0358: real time    0.0358
    MIXING:  cpu time    0.0016: real time    0.0016
    --------------------------------------------
      LOOP:  cpu time    0.4979: real time    0.5017

 eigenvalue-minimisations  :   448
 total energy-change (2. order) :-0.9047129E-05  (-0.1183966E-04)
 number of electron      51.9999991 magnetization 
 augmentation part        1.5558831 magnetization 

 Broyden mixing:
  rms(total) = 0.42824E-02    rms(broyden)= 0.42824E-02
  rms(prec ) = 0.46266E-02
  weight for this iteration     100.00

 eigenvalues of (default mixing * dielectric matrix)
  average eigenvalue GAMMA=   1.2607
  2.4486  2.4486  1.4909  0.8938  0.8938  0.5788  0.6656  0.6656

 Free energy of the ion-electron system (eV)
  ---------------------------------------------------
  alpha Z        PSCENC =       160.27286088
  Ewald energy   TEWEN  =     -2855.51818765
  -Hartree energ DENC   =     -1855.98277639
  -exchange      EXHF   =         0.00000000
  -V(xc)+E(xc)   XCENC  =       181.57362134
  PAW double counting   =      5931.20694286    -5889.19008622
  entropy T*S    EENTRO =        -0.00000000
  eigenvalues    EBANDS =      -547.11556456
  atomic energy  EATOM  =      4831.84262874
  Solvation  Ediel_sol  =         0.00000000
  ---------------------------------------------------
  free energy    TOTEN  =       -42.91056100 eV

  energy without entropy =      -42.91056100  energy(sigma->0) =      -42.91056100


--------------------------------------------------------------------------------------------------------




--------------------------------------- Iteration      1(  14)  ---------------------------------------


    POTLOK:  cpu time    0.0548: real time    0.0586
    SETDIJ:  cpu time    0.0054: real time    0.0054
     EDDAV:  cpu time    0.4241: real time    0.4241
       DOS:  cpu time    0.0002: real time    0.0002
    CHARGE:  cpu time    0.0358: real time    0.0358
    MIXING:  cpu time    0.0017: real time    0.0017
    --------------------------------------------
      LOOP:  cpu time    0.5220: real time    0.5257

 eigenvalue-minimisations  :   488
 total energy-change (2. order) :-0.2026673E-04  (-0.9282408E-05)
 number of electron      51.9999991 magnetization 
 augmentation part        1.5573999 magnetization 

 Broyden mixing:
  rms(total) = 0.12145E-02    rms(broyden)= 0.12145E-02
  rms(prec ) = 0.13673E-02
  weight for this iteration     100.00

 eigenvalues of (default mixing * dielectric matrix)
  average eigenvalue GAMMA=   1.2843
  2.5542  2.3827  1.5544  1.4678  0.8388  0.8388  0.5775  0.6720  0.6720

 Free energy of the ion-electron system (eV)
  ---------------------------------------------------
  alpha Z        PSCENC =       160.27286088
  Ewald energy   TEWEN  =     -2855.51818765
  -Hartree energ DENC   =     -1856.04544710
  -exchange      EXHF   =         0.00000000
  -V(xc)+E(xc)   XCENC  =       181.57502804
  PAW double counting   =      5929.29250819    -5887.27747717
  entropy T*S    EENTRO =        -0.00000000
  eigenvalues    EBANDS =      -547.05249519
  atomic energy  EATOM  =      4831.84262874
  Solvation  Ediel_sol  =         0.00000000
  ---------------------------------------------------
  free energy    TOTEN  =       -42.91058126 eV

  energy without entropy =      -42.91058126  energy(sigma->0) =      -42.91058126


--------------------------------------------------------------------------------------------------------




--------------------------------------- Iteration      1(  15)  ---------------------------------------


    POTLOK:  cpu time    0.0548: real time    0.0612
    SETDIJ:  cpu time    0.0054: real time    0.0053
     EDDAV:  cpu time    0.3752: real time    0.3753
       DOS:  cpu time    0.0002: real time    0.0002
    CHARGE:  cpu time    0.0357: real time    0.0357
    MIXING:  cpu time    0.0017: real time    0.0017
    --------------------------------------------
      LOOP:  cpu time    0.4730: real time    0.4795

 eigenvalue-minimisations  :   408
 total energy-change (2. order) :-0.6330625E-05  (-0.7427842E-06)
 number of electron      51.9999991 magnetization 
 augmentation part        1.5570744 magnetization 

 Broyden mixing:
  rms(total) = 0.72024E-03    rms(broyden)= 0.72024E-03
  rms(prec ) = 0.77308E-03
  weight for this iteration     100.00

 eigenvalues of (default mixing * dielectric matrix)
  average eigenvalue GAMMA=   1.2951
  2.8068  2.0714  2.0714  1.4285  0.9118  0.9118  0.8486  0.5762  0.6622  0.6622

 Free energy of the ion-electron system (eV)
  ---------------------------------------------------
  alpha Z        PSCENC =       160.27286088
  Ewald energy   TEWEN  =     -2855.51818765
  -Hartree energ DENC   =     -1856.08712818
  -exchange      EXHF   =         0.00000000
  -V(xc)+E(xc)   XCENC  =       181.57647735
  PAW double counting   =      5929.20622118    -5887.18944031
  entropy T*S    EENTRO =        -0.00000000
  eigenvalues    EBANDS =      -547.01401961
  atomic energy  EATOM  =      4831.84262874
  Solvation  Ediel_sol  =         0.00000000
  ---------------------------------------------------
  free energy    TOTEN  =       -42.91058760 eV

  energy without entropy =      -42.91058760  energy(sigma->0) =      -42.91058760


--------------------------------------------------------------------------------------------------------




--------------------------------------- Iteration      1(  16)  ---------------------------------------


    POTLOK:  cpu time    0.0549: real time    0.0586
    SETDIJ:  cpu time    0.0054: real time    0.0054
     EDDAV:  cpu time    0.3272: real time    0.3272
       DOS:  cpu time    0.0002: real time    0.0002
    CHARGE:  cpu time    0.0358: real time    0.0358
    MIXING:  cpu time    0.0018: real time    0.0018
    --------------------------------------------
      LOOP:  cpu time    0.4252: real time    0.4290

 eigenvalue-minimisations  :   336
 total energy-change (2. order) :-0.1805699E-05  (-0.1347711E-06)
 number of electron      51.9999991 magnetization 
 augmentation part        1.5570887 magnetization 

 Broyden mixing:
  rms(total) = 0.28584E-03    rms(broyden)= 0.28584E-03
  rms(prec ) = 0.32247E-03
  weight for this iteration     100.00

 eigenvalues of (default mixing * dielectric matrix)
  average eigenvalue GAMMA=   1.3405
  2.9363  2.1283  2.1283  1.8034  1.1536  0.9213  0.9213  0.8427  0.5766  0.6665
  0.6665

 Free energy of the ion-electron system (eV)
  ---------------------------------------------------
  alpha Z        PSCENC =       160.27286088
  Ewald energy   TEWEN  =     -2855.51818765
  -Hartree energ DENC   =     -1856.09863763
  -exchange      EXHF   =         0.00000000
  -V(xc)+E(xc)   XCENC  =       181.57700643
  PAW double counting   =      5929.35552410    -5887.33871516
  entropy T*S    EENTRO =        -0.00000000
  eigenvalues    EBANDS =      -547.00306911
  atomic energy  EATOM  =      4831.84262874
  Solvation  Ediel_sol  =         0.00000000
  ---------------------------------------------------
  free energy    TOTEN  =       -42.91058940 eV

  energy without entropy =      -42.91058940  energy(sigma->0) =      -42.91058940


--------------------------------------------------------------------------------------------------------




--------------------------------------- Iteration      1(  17)  ---------------------------------------


    POTLOK:  cpu time    0.0548: real time    0.0581
    SETDIJ:  cpu time    0.0054: real time    0.0054
     EDDAV:  cpu time    0.2869: real time    0.2870
       DOS:  cpu time    0.0002: real time    0.0002
    --------------------------------------------
      LOOP:  cpu time    0.3473: real time    0.3507

 eigenvalue-minimisations  :   272
 total energy-change (2. order) :-0.4569220E-06  (-0.5798791E-07)
 number of electron      51.9999991 magnetization 
 augmentation part        1.5570887 magnetization 

 Free energy of the ion-electron system (eV)
  ---------------------------------------------------
  alpha Z        PSCENC =       160.27286088
  Ewald energy   TEWEN  =     -2855.51818765
  -Hartree energ DENC   =     -1856.10275363
  -exchange      EXHF   =         0.00000000
  -V(xc)+E(xc)   XCENC  =       181.57729311
  PAW double counting   =      5929.36909976    -5887.35234033
  entropy T*S    EENTRO =        -0.00000000
  eigenvalues    EBANDS =      -546.99919074
  atomic energy  EATOM  =      4831.84262874
  Solvation  Ediel_sol  =         0.00000000
  ---------------------------------------------------
  free energy    TOTEN  =       -42.91058986 eV

  energy without entropy =      -42.91058986  energy(sigma->0) =      -42.91058986


--------------------------------------------------------------------------------------------------------




 average (electrostatic) potential at core
  the test charge radii are     1.0818  0.9698
  (the norm of the test charge is              1.0000)
       1 -75.7915       2 -75.9496       3 -85.6524       4 -85.7403       5 -85.6529
       6 -85.6260
 
 
 
 E-fermi :   6.2683     XC(G=0): -10.1636     alpha+bet :-12.2268

 Fermi energy:         6.2682911820

 k-point     1 :       0.2500    0.2500    0.0000
  band No.  band energies     occupation 
      1     -55.1582      2.00000
      2     -55.0380      2.00000
      3     -29.3945      2.00000
      4     -29.3309      2.00000
      5     -29.3075      2.00000
      6     -29.2605      2.00000
      7     -29.2539      2.00000
      8     -29.1092      2.00000
      9      -6.5947      2.00000
     10      -6.5316      2.00000
     11      -6.3640      2.00000
     12      -6.2928      2.00000
     13       0.5704      2.00000
     14       0.6640      2.00000
     15       0.7815      2.00000
     16       0.8479      2.00000
     17       1.8886      2.00000
     18       2.0472      2.00000
     19       2.3053      2.00000
     20       2.4527      2.00000
     21       2.6468      2.00000
     22       2.8029      2.00000
     23       3.9316      2.00000
     24       4.0273      2.00000
     25       5.1845      2.00000
     26       5.8626      2.00000
     27       7.4665      0.00000
     28       7.8398      0.00000
     29       8.4090      0.00000
     30       8.5292      0.00000
     31       8.6454      0.00000
     32       8.8701      0.00000

 k-point     2 :      -0.2500    0.5000    0.0000
  band No.  band energies     occupation 
      1     -55.1582      2.00000
      2     -55.0372      2.00000
      3     -29.3960      2.00000
      4     -29.3952      2.00000
      5     -29.3075      2.00000
      6     -29.2531      2.00000
      7     -29.2400      2.00000
      8     -29.0753      2.00000
      9      -6.5954      2.00000
     10      -6.5739      2.00000
     11      -6.3534      2.00000
     12      -6.3309      2.00000
     13       0.5474      2.00000
     14       0.6383      2.00000
     15       0.7946      2.00000
     16       1.3476      2.00000
     17       1.8118      2.00000
     18       2.0464      2.00000
     19       2.2319      2.00000
     20       2.5243      2.00000
     21       2.7643      2.00000
     22       3.0086      2.00000
     23       3.5990      2.00000
     24       4.0202      2.00000
     25       5.1848      2.00000
     26       5.8764      2.00000
     27       7.4955      0.00000
     28       7.7823      0.00000
     29       8.0416      0.00000
     30       8.3442      0.00000
     31       8.5451      0.00000
     32       8.7809      0.00000

 k-point     3 :       0.5000    0.2500    0.0000
  band No.  band energies     occupation 
      1     -55.1582      2.00000
      2     -55.0381      2.00000
      3     -29.3942      2.00000
      4     -29.3577      2.00000
      5     -29.3075      2.00000
      6     -29.2541      2.00000
      7     -29.1953      2.00000
      8     -29.1468      2.00000
      9      -6.5928      2.00000
     10      -6.5267      2.00000
     11      -6.3620      2.00000
     12      -6.2875      2.00000
     13       0.5113      2.00000
     14       0.6040      2.00000
     15       0.7817      2.00000
     16       0.8324      2.00000
     17       1.9015      2.00000
     18       2.0821      2.00000
     19       2.3335      2.00000
     20       2.5448      2.00000
     21       2.6858      2.00000
     22       2.8020      2.00000
     23       3.8764      2.00000
     24       4.0118      2.00000
     25       5.1849      2.00000
     26       5.7729      2.00000
     27       7.5568      0.00000
     28       7.8574      0.00000
     29       8.4162      0.00000
     30       8.5518      0.00000
     31       8.6497      0.00000
     32       8.8568      0.00000

 k-point     4 :      -0.2500    0.2500    0.0000
  band No.  band energies     occupation 
      1     -55.1761      2.00000
      2     -55.0554      2.00000
      3     -29.3534      2.00000
      4     -29.3433      2.00000
      5     -29.2842      2.00000
      6     -29.1727      2.00000
      7     -29.1442      2.00000
      8     -28.9975      2.00000
      9      -7.5916      2.00000
     10      -7.4518      2.00000
     11      -6.8888      2.00000
     12      -6.7422      2.00000
     13       0.6121      2.00000
     14       1.0905      2.00000
     15       1.5247      2.00000
     16       1.8384      2.00000
     17       1.9419      2.00000
     18       2.1437      2.00000
     19       3.1937      2.00000
     20       3.4612      2.00000
     21       3.8936      2.00000
     22       3.9169      2.00000
     23       4.2457      2.00000
     24       4.5221      2.00000
     25       4.9626      2.00000
     26       5.6739      2.00000
     27       6.6589      0.00000
     28       7.5665      0.00000
     29       8.0220      0.00000
     30       8.0822      0.00000
     31       8.5586      0.00000
     32       8.9091      0.00000

 k-point     5 :      -0.2500    0.0000    0.0000
  band No.  band energies     occupation 
      1     -55.1761      2.00000
      2     -55.0562      2.00000
      3     -29.3433      2.00000
      4     -29.3405      2.00000
      5     -29.2834      2.00000
      6     -29.1449      2.00000
      7     -29.1102      2.00000
      8     -29.0615      2.00000
      9      -7.6279      2.00000
     10      -7.5353      2.00000
     11      -6.8064      2.00000
     12      -6.6474      2.00000
     13       0.4994      2.00000
     14       0.8697      2.00000
     15       1.7737      2.00000
     16       1.9110      2.00000
     17       2.0741      2.00000
     18       2.2564      2.00000
     19       2.6438      2.00000
     20       3.1938      2.00000
     21       3.9019      2.00000
     22       3.9371      2.00000
     23       4.3716      2.00000
     24       4.5108      2.00000
     25       4.9511      2.00000
     26       5.5841      2.00000
     27       7.0001      0.00000
     28       7.5610      0.00000
     29       7.8892      0.00000
     30       8.0254      0.00000
     31       8.5305      0.00000
     32       8.8902      0.00000

 k-point     6 :       0.0000   -0.2500    0.0000
  band No.  band energies     occupation 
      1     -55.1761      2.00000
      2     -55.0553      2.00000
      3     -29.3433      2.00000
      4     -29.3425      2.00000
      5     -29.2845      2.00000
      6     -29.1954      2.00000
      7     -29.1439      2.00000
      8     -28.9867      2.00000
      9      -7.5917      2.00000
     10      -7.4545      2.00000
     11      -6.8917      2.00000
     12      -6.7435      2.00000
     13       0.6062      2.00000
     14       1.0518      2.00000
     15       1.5820      2.00000
     16       1.8696      2.00000
     17       2.0779      2.00000
     18       2.1537      2.00000
     19       3.1935      2.00000
     20       3.3768      2.00000
     21       3.6254      2.00000
     22       3.9028      2.00000
     23       4.2852      2.00000
     24       4.6116      2.00000
     25       4.9596      2.00000
     26       5.3889      2.00000
     27       7.1935      0.00000
     28       7.5759      0.00000
     29       8.0222      0.00000
     30       8.0760      0.00000
     31       8.5607      0.00000
     32       8.8285      0.00000


--------------------------------------------------------------------------------------------------------


 soft charge-density along one line, spin component           1
         0         1         2         3         4         5         6         7         8         9
 total charge-density along one line
 
 pseudopotential strength for first ion, spin component:           1
 -5.041  11.419  -0.007  -0.010   0.013   0.002   0.020  -0.025
 11.419   3.268   0.000   0.017  -0.019  -0.001  -0.005   0.008
 -0.007   0.000 -18.095   0.008   0.004   8.936  -0.010  -0.001
 -0.010   0.017   0.008 -18.108  -0.016  -0.010   8.953   0.016
  0.013  -0.019   0.004  -0.016 -18.092  -0.001   0.016   8.930
  0.002  -0.001   8.936  -0.010  -0.001   5.741   0.004   0.002
  0.020  -0.005  -0.010   8.953   0.016   0.004   5.732  -0.009
 -0.025   0.008  -0.001   0.016   8.930   0.002  -0.009   5.744
  0.003   0.000   0.018  -0.007   0.003  -0.014   0.004  -0.002
  0.011  -0.007  -0.017   0.002  -0.007   0.012  -0.001   0.004
 -0.010   0.007   0.005  -0.019  -0.005  -0.002   0.013   0.006
 -0.019   0.009  -0.007   0.024  -0.012   0.004  -0.017   0.010
  0.002  -0.002   0.011   0.002   0.015  -0.005  -0.001  -0.012
  0.004   0.000   0.019  -0.008   0.003  -0.015   0.004  -0.002
  0.011  -0.007  -0.017   0.002  -0.008   0.012  -0.002   0.004
 -0.010   0.007   0.006  -0.019  -0.005  -0.002   0.014   0.006
 -0.019   0.009  -0.008   0.024  -0.012   0.004  -0.017   0.010
  0.002  -0.002   0.011   0.002   0.015  -0.005  -0.001  -0.013
 total augmentation occupancy for first ion, spin component:           1
  1.996  -0.037  -0.000   0.000   0.000  -0.001   0.001   0.001  -0.024   0.001   0.007   0.054   0.002   0.022  -0.002  -0.007
 -0.037   1.301   0.003   0.002   0.006  -0.027   0.023  -0.037  -0.551   0.289  -0.369   0.318   0.195   0.560  -0.314   0.450
 -0.000   0.003   1.998  -0.000   0.000  -0.040   0.000  -0.001  -0.014  -0.003   0.004  -0.020  -0.007   0.016   0.003  -0.001
  0.000   0.002  -0.000   1.999  -0.000   0.000  -0.046   0.001  -0.017   0.036   0.000   0.002   0.007   0.006  -0.031  -0.004
  0.000   0.006   0.000  -0.000   1.998  -0.001   0.001  -0.038   0.020  -0.019   0.022   0.010  -0.025  -0.011   0.010  -0.018
 -0.001  -0.027  -0.040   0.000  -0.001   0.097  -0.011   0.014   0.034  -0.062   0.030  -0.129   0.095  -0.054   0.078  -0.040
  0.001   0.023   0.000  -0.046   0.001  -0.011   0.131  -0.014  -0.153   0.108  -0.095   0.106   0.052   0.184  -0.120   0.119
  0.001  -0.037  -0.001   0.001  -0.038   0.014  -0.014   0.084   0.164  -0.134   0.042   0.041   0.020  -0.185   0.159  -0.048
 -0.024  -0.551  -0.014  -0.017   0.020   0.034  -0.153   0.164   2.859  -0.593   0.146   0.142  -0.188  -3.132   0.611  -0.155
  0.001   0.289  -0.003   0.036  -0.019  -0.062   0.108  -0.134  -0.593   5.102  -0.597   1.638   0.607   0.610  -6.156   0.678
  0.007  -0.369   0.004   0.000   0.022   0.030  -0.095   0.042   0.146  -0.597   2.354  -0.550  -0.057  -0.153   0.684  -2.597
  0.054   0.318  -0.020   0.002   0.010  -0.129   0.106   0.041   0.142   1.638  -0.550   3.859  -0.178  -0.218  -1.912   0.708
  0.002   0.195  -0.007   0.007  -0.025   0.095   0.052   0.020  -0.188   0.607  -0.057  -0.178   2.427   0.339  -0.872   0.025
  0.022   0.560   0.016   0.006  -0.011  -0.054   0.184  -0.185  -3.132   0.610  -0.153  -0.218   0.339   4.215  -0.702   0.184
 -0.002  -0.314   0.003  -0.031   0.010   0.078  -0.120   0.159   0.611  -6.156   0.684  -1.912  -0.872  -0.702   7.848  -0.776
 -0.007   0.450  -0.001  -0.004  -0.018  -0.040   0.119  -0.048  -0.155   0.678  -2.597   0.708   0.025   0.184  -0.776   3.686
 -0.049  -0.392   0.010   0.008  -0.003   0.156  -0.153  -0.048  -0.215  -1.912   0.710  -4.712   0.219   0.279   2.201  -0.831
 -0.001  -0.211   0.014  -0.002   0.025  -0.118  -0.067  -0.031   0.343  -0.873   0.029   0.215  -2.614  -0.389   1.072  -0.026


------------------------ aborting loop because EDIFF is reached ----------------------------------------


    CHARGE:  cpu time    0.0358: real time    0.0358
    FORLOC:  cpu time    0.0046: real time    0.0046
    FORNL :  cpu time    0.0756: real time    0.0756
    STRESS:  cpu time    0.1526: real time    0.1528
    FORCOR:  cpu time    0.0595: real time    0.0595
    FORHAR:  cpu time    0.0146: real time    0.0146
    MIXING:  cpu time    0.0019: real time    0.0019
    OFIELD:  cpu time    0.0000: real time    0.0000

 ---------------------------------------------------------------------------------------------

         DFTD3 V3.0 Rev 1        
 IVDW         = 12
 DF pbe       
 parameters
 VDW_S6       =    1.0000
 VDW_S8       =    0.7875
 VDW_A1       =    0.4289
 VDW_A2       =    4.4407
 k1-k3        =   16.0000    1.3333   -4.0000
 VDW_RADIUS   =   50.2022 A
 VDW_CNRADIUS =   21.1671 A
 Edisp (eV)   -2.31087

 E6    (eV) :    -1.3760
 E8    (eV) :    -0.9349
 % E8        : 40.45
    FORVDW:  cpu time    0.0373: real time    0.0374

  FORCE on cell =-STRESS in cart. coord.  units (eV):
  Direction    XX          YY          ZZ          XY          YZ          ZX
  --------------------------------------------------------------------------------------
  Alpha Z   160.27286   160.27286   160.27286
  Ewald    -101.42945   -41.62958 -2712.46185    69.67088   -26.45889   -30.05737
  Hartree  1345.07224  1367.39219  -856.36408    25.74727    -6.93425    -9.16845
  E(xc)    -219.31725  -219.22088  -219.58150     0.13454    -0.03376    -0.06808
  Local   -2252.06007 -2334.25234  2556.98416   -94.13883    31.18275    41.49309
  n-local   236.83122   239.81386   250.00695     2.23329    -1.58518    -2.80083
  augment    -0.87603    -1.47270    -4.19838    -0.15780     0.37912     0.04185
  Kinetic   831.64265   830.35525   826.99424    -2.66757     1.68248    -4.28977
  Fock        0.00000     0.00000     0.00000     0.00000     0.00000     0.00000
  vdW        -2.37336    -2.38548    -2.19629    -0.01088     0.00275     0.01187
  -------------------------------------------------------------------------------------
  Total      -2.23720    -1.12682    -0.54390     0.81090    -1.76499    -4.83770
  in kB     -30.35948   -15.29124    -7.38081    11.00413   -23.95139   -65.64894
  external pressure =      -17.68 kB  Pullay stress =        0.00 kB


 VOLUME and BASIS-vectors are now :
 -----------------------------------------------------------------------------
  energy-cutoff  :      500.00
  volume of cell :      118.07
      direct lattice vectors                 reciprocal lattice vectors
     1.596118927 -2.764559076  0.000000000     0.313259865 -0.180860668  0.000000000
     1.596118927  2.764559076  0.000000000     0.313259865  0.180860668  0.000000000
     0.000000000  0.000000000 13.378293991     0.000000000  0.000000000  0.074747946

  length of vectors
     3.192237854  3.192237854 13.378293991     0.361721335  0.361721335  0.074747946


 FORCES acting on ions
    electron-ion (+dipol)            ewald-force                    non-local-force                 convergence-correction
 -----------------------------------------------------------------------------------------------
   -.190E+02 -.165E+02 0.153E+02   0.206E+02 0.162E+02 -.178E+02   0.184E+01 0.442E+00 -.131E+00   0.237E-03 0.228E-03 -.395E-03
   0.253E-01 -.430E-02 -.621E+01   -.278E-01 0.731E-02 0.622E+01   -.383E-02 0.141E-02 0.165E-02   0.188E-04 0.676E-05 0.625E-03
   -.127E+00 -.988E-01 0.412E+03   0.134E+00 0.973E-01 -.416E+03   -.342E-02 0.314E-02 0.508E+01   0.397E-05 -.473E-05 0.940E-03
   0.199E+02 0.174E+02 -.418E+03   -.198E+02 -.165E+02 0.421E+03   -.333E+01 -.149E+01 -.141E+01   0.276E-04 0.334E-04 0.440E-03
   0.249E-01 -.107E-01 -.417E+03   0.194E-03 0.143E-03 0.422E+03   -.142E-01 0.578E-02 -.507E+01   -.147E-05 -.565E-05 -.650E-03
   0.104E+01 -.195E+00 0.412E+03   -.896E+00 0.235E+00 -.415E+03   -.340E+00 0.467E+00 0.442E+01   -.456E-04 0.358E-04 -.644E-03
 -----------------------------------------------------------------------------------------------
   0.185E+01 0.569E+00 -.289E+01   -.304E-13 0.960E-14 -.114E-12   -.185E+01 -.569E+00 0.289E+01   0.240E-03 0.294E-03 0.317E-03
 
 
 POSITION                                       TOTAL-FORCE (eV/Angst)
 -----------------------------------------------------------------------------------
      1.59612     -0.92152      3.34457         3.402244      0.102948     -2.582235
      1.59612      0.92152     10.03372        -0.006398      0.004425      0.001852
      1.59612     -0.92152      8.46956         0.003959      0.001926      0.318564
      2.27679      0.74569      4.95718        -3.213047     -0.612424      1.981139
      1.59612     -0.92152     11.59788         0.010913     -0.004788     -0.314709
      1.59612      0.92152      1.78041        -0.197671      0.507913      0.595389
 -----------------------------------------------------------------------------------
    total drift:                                0.000134      0.000021     -0.000190


--------------------------------------------------------------------------------------------------------



  FREE ENERGIE OF THE ION-ELECTRON SYSTEM (eV)
  ---------------------------------------------------
  free  energy   TOTEN  =       -45.22146363 eV

  energy  without entropy=      -45.22146363  energy(sigma->0) =      -45.22146363
 


--------------------------------------------------------------------------------------------------------


    POTLOK:  cpu time    0.0610: real time    0.0610


--------------------------------------------------------------------------------------------------------


 stress matrix after NEB project (eV)
     -2.23720      0.81090     -4.83770
      0.81090     -1.12682     -1.76499
     -4.83770     -1.76499     -0.54390
  FORCES: max atom, RMS     4.272447    2.370996
  FORCE total and by dimension    5.807731    3.402244
  Stress total and by dimension    7.805306    4.837701
 writing wavefunctions
     LOOP+:  cpu time    9.0461: real time    9.1214
    4ORBIT:  cpu time    0.0000: real time    0.0000

 total amount of memory used by VASP MPI-rank0    38677. kBytes
=======================================================================

   base      :      30000. kBytes
   nonl-proj :       1371. kBytes
   fftplans  :       2330. kBytes
   grid      :       3750. kBytes
   one-center:         31. kBytes
   wavefun   :       1195. kBytes
 
  
  
 General timing and accounting informations for this job:
 ========================================================
  
                  Total CPU time used (sec):       10.651
                            User time (sec):        9.763
                          System time (sec):        0.888
                         Elapsed time (sec):       11.193
  
                   Maximum memory used (kb):      134480.
                   Average memory used (kb):          N/A
  
                          Minor page faults:        24872
                          Major page faults:            0
                 Voluntary context switches:         1031
