# LAMMPS data file: 2H-MoS2 monolayer, 3x3 hexagonal supercell (27 atoms)
# Built at DFT reference geometry (Cooper & Marianetti 2014, PRB 90, 167401):
#     a       = 3.1830 A   (lattice constant, DFT-PBE)
#     h_S     = 1.5640 A   (Mo-to-S vertical half-thickness)
#     d_MoS   = 2.4131 A   (Mo-S bond length, derived: sqrt(a^2/3 + h_S^2))
#     angle_intra(S-Mo-S in-plane) = 82.53 deg
#     angle_vert (S-Mo-S vertical) = 80.80 deg
#
# Use this data file with the v9-calibrated ReaxFF:
#     results/ffield/ffield.reax.MoSH.pibo_biaxial_v9.reax
# After LAMMPS box-relax + CG minimization, compare the relaxed observables
# against the DFT reference values above (i.e. row R001 of MoS2_physical_validation.csv).
#
# Triclinic hex box:
#     a1_super = (3a,        0,            0)
#     a2_super = (3a/2,      3a*sqrt(3)/2, 0)
#     a3_super = (0,         0,            30)         (vacuum padding)
# LAMMPS convention -> xy = +4.7745, xz = yz = 0.

27 atoms
2 atom types

0.0000000000   9.5490000000   xlo xhi
0.0000000000   8.2696530972   ylo yhi
-15.0000000000 15.0000000000  zlo zhi
4.7745000000   0.0000000000   0.0000000000  xy xz yz

Masses

1 95.94     # Mo
2 32.065    # S

Atoms  # charge

      1  1  0.0000    0.0000000000    0.0000000000    0.0000000000
      2  1  0.0000    3.1830000000    0.0000000000    0.0000000000
      3  1  0.0000    6.3660000000    0.0000000000    0.0000000000
      4  1  0.0000    1.5915000000    2.7565510324    0.0000000000
      5  1  0.0000    4.7745000000    2.7565510324    0.0000000000
      6  1  0.0000    7.9575000000    2.7565510324    0.0000000000
      7  1  0.0000    3.1830000000    5.5131020648    0.0000000000
      8  1  0.0000    6.3660000000    5.5131020648    0.0000000000
      9  1  0.0000    0.0000000000    5.5131020648    0.0000000000
     10  2  0.0000    1.5915000000    0.9188503441    1.5640000000
     11  2  0.0000    1.5915000000    0.9188503441   -1.5640000000
     12  2  0.0000    4.7745000000    0.9188503441    1.5640000000
     13  2  0.0000    4.7745000000    0.9188503441   -1.5640000000
     14  2  0.0000    7.9575000000    0.9188503441    1.5640000000
     15  2  0.0000    7.9575000000    0.9188503441   -1.5640000000
     16  2  0.0000    3.1830000000    3.6754013766    1.5640000000
     17  2  0.0000    3.1830000000    3.6754013766   -1.5640000000
     18  2  0.0000    6.3660000000    3.6754013766    1.5640000000
     19  2  0.0000    6.3660000000    3.6754013766   -1.5640000000
     20  2  0.0000    0.0000000000    3.6754013766    1.5640000000
     21  2  0.0000    0.0000000000    3.6754013766   -1.5640000000
     22  2  0.0000    4.7745000000    6.4319524089    1.5640000000
     23  2  0.0000    4.7745000000    6.4319524089   -1.5640000000
     24  2  0.0000    7.9575000000    6.4319524089    1.5640000000
     25  2  0.0000    7.9575000000    6.4319524089   -1.5640000000
     26  2  0.0000    1.5915000000    6.4319524089    1.5640000000
     27  2  0.0000    1.5915000000    6.4319524089   -1.5640000000
